    18
 Energy=    -196.290778845712
   O         -1.2503219492        0.6642711847       -1.6289050973
   H         -1.8053344141        1.2619638730       -2.1298606385
   H         -1.4976107001        0.8149812716       -0.7165638326
   O         -1.0671398409       -1.7608468565       -0.1579561226
   H         -1.4188092570       -1.1759684707        0.5132202592
   H         -1.1693330470       -1.2755491852       -0.9766590962
   O         -1.6539004581        0.7112201081        1.1176734320
   H         -2.1485952511        1.1116884999        1.8326097711
   H         -0.7366437836        0.8543855994        1.3508593560
   O          1.5934224570       -1.5162315375        0.2541167592
   H          2.0345701544       -2.3615911896        0.1705248478
   H          0.6667123938       -1.7148278146        0.1199533606
   O          0.9849274770        0.9771391469        1.5559837245
   H          1.3243541209        0.0825824882        1.5840867088
   H          1.2319925829        1.3004587572        0.6895801793
   O          1.4724100696        0.9352959746       -1.1492298065
   H          1.6743311612        0.0553813964       -0.8310945400
   H          0.5740019527        0.8729264482       -1.4735826046
    18
 Energy=    -196.290389041655
   O         -1.2509652199        0.6654449548       -1.6282906216
   H         -1.8063059275        1.2640491593       -2.1277919177
   H         -1.4974971893        0.8146524920       -0.7154976883
   O         -1.0670147579       -1.7614924129       -0.1602911049
   H         -1.4179871650       -1.1771452489        0.5117123186
   H         -1.1690193730       -1.2750881229       -0.9783606406
   O         -1.6528915308        0.7091672764        1.1184170177
   H         -2.1481066452        1.1094660588        1.8330880717
   H         -0.7358238113        0.8538347821        1.3514190575
   O          1.5929486410       -1.5160451961        0.2557910263
   H          2.0345176338       -2.3614000463        0.1744040380
   H          0.6665784663       -1.7151200933        0.1199995511
   O          0.9856188948        0.9792616430        1.5556798512
   H          1.3244592481        0.0844920247        1.5840767734
   H          1.2319389611        1.3017592049        0.6887579472
   O          1.4717272108        0.9345024372       -1.1498510589
   H          1.6733920391        0.0546147230       -0.8314790321
   H          0.5730819560        0.8724658276       -1.4736102366
    18
 Energy=    -196.289121719024
   O         -1.2524201122        0.6655145256       -1.6275173618
   H         -1.8075068590        1.2644149292       -2.1269458853
   H         -1.4984141645        0.8151966800       -0.7146570116
   O         -1.0671457783       -1.7618582661       -0.1630538886
   H         -1.4194765378       -1.1798563101        0.5102726289
   H         -1.1710624174       -1.2741837775       -0.9801259572
   O         -1.6513745360        0.7074768160        1.1200622507
   H         -2.1453108887        1.1064261576        1.8363709428
   H         -0.7339074352        0.8527768381        1.3510900901
   O          1.5909846651       -1.5146062797        0.2591372447
   H          2.0334032496       -2.3594774001        0.1773422208
   H          0.6651844311       -1.7140414694        0.1200280361
   O          0.9875327387        0.9810388783        1.5541994893
   H          1.3253474721        0.0858512847        1.5816260862
   H          1.2334437549        1.3038894444        0.6872928483
   O          1.4719703494        0.9332687879       -1.1513890217
   H          1.6722547298        0.0540875796       -0.8302061921
   H          0.5732874386        0.8715646508       -1.4751072099
    18
 Energy=    -196.287865845811
   O         -1.2519673009        0.6651941492       -1.6276400702
   H         -1.8069252282        1.2642522381       -2.1270226341
   H         -1.4974312900        0.8153631042       -0.7147169874
   O         -1.0676518364       -1.7628822956       -0.1631114549
   H         -1.4206930691       -1.1819235396        0.5107436125
   H         -1.1713141773       -1.2742132701       -0.9796214319
   O         -1.6515968093        0.7070942815        1.1214082308
   H         -2.1447840687        1.1049355444        1.8388484699
   H         -0.7338933176        0.8523240200        1.3515396377
   O          1.5901615945       -1.5134352481        0.2610253819
   H          2.0328908451       -2.3581635188        0.1794361705
   H          0.6645824758       -1.7130452662        0.1207008450
   O          0.9881523476        0.9807001358        1.5536358105
   H          1.3254590847        0.0852452308        1.5784655950
   H          1.2339158170        1.3057953718        0.6875265538
   O          1.4723952363        0.9340841731       -1.1539332996
   H          1.6729193865        0.0554473753       -0.8314130945
   H          0.5733818334        0.8718995760       -1.4766403143
    18
 Energy=    -196.285600009164
   O         -1.2521784471        0.6641243239       -1.6246648913
   H         -1.8075529731        1.2632956153       -2.1234481503
   H         -1.4970474689        0.8139170319       -0.7115202440
   O         -1.0683899112       -1.7637158591       -0.1630051254
   H         -1.4224302757       -1.1843101720        0.5116624299
   H         -1.1703293592       -1.2729385825       -0.9784668681
   O         -1.6513269955        0.7062322556        1.1227261529
   H         -2.1445235141        1.1012391270        1.8417244878
   H         -0.7336335524        0.8509792999        1.3532014827
   O          1.5900212325       -1.5111966315        0.2619732148
   H          2.0341947620       -2.3555167798        0.1840938018
   H          0.6648916355       -1.7128644657        0.1216266676
   O          0.9884487104        0.9797721485        1.5512202674
   H          1.3242314185        0.0835751565        1.5689054197
   H          1.2346397269        1.3112957750        0.6876729853
   O          1.4728564520        0.9354589795       -1.1573379848
   H          1.6737763288        0.0576734494       -0.8327527012
   H          0.5728866132        0.8728510762       -1.4772854487
    18
 Energy=    -196.283483949063
   O         -1.2524608832        0.6638701120       -1.6234970615
   H         -1.8084915130        1.2629975370       -2.1216015759
   H         -1.4969811323        0.8128791076       -0.7101307565
   O         -1.0685428614       -1.7646972293       -0.1626948410
   H         -1.4228017862       -1.1857571653        0.5122576436
   H         -1.1691615702       -1.2728879738       -0.9776987500
   O         -1.6516285877        0.7062409234        1.1235329526
   H         -2.1447054107        1.0998606551        1.8433736248
   H         -0.7339038706        0.8509557939        1.3539039359
   O          1.5902537825       -1.5101268675        0.2624111934
   H          2.0347561056       -2.3545357659        0.1874236140
   H          0.6652607469       -1.7125604664        0.1222671172
   O          0.9883834229        0.9788314672        1.5505643945
   H          1.3231397181        0.0821864563        1.5646280827
   H          1.2346707109        1.3134505211        0.6882393394
   O          1.4733781253        0.9365659618       -1.1596546970
   H          1.6753103254        0.0588556977       -0.8354943678
   H          0.5727796998        0.8736057214       -1.4777589632
    18
 Energy=    -196.280457855388
   O         -1.2532939556        0.6637521774       -1.6215921034
   H         -1.8095622908        1.2624465067       -2.1199518925
   H         -1.4987301804        0.8121839790       -0.7083775065
   O         -1.0669128409       -1.7649160914       -0.1616514230
   H         -1.4209299021       -1.1863778511        0.5137723439
   H         -1.1669811477       -1.2722486365       -0.9762046459
   O         -1.6525918415        0.7056240501        1.1243341844
   H         -2.1451625733        1.0975833784        1.8454262723
   H         -0.7347213105        0.8506760292        1.3539108638
   O          1.5904615740       -1.5089007153        0.2599723583
   H          2.0357934182       -2.3531671733        0.1883795064
   H          0.6656844146       -1.7127845460        0.1205075634
   O          0.9872183286        0.9784533642        1.5503588766
   H          1.3198493466        0.0809622680        1.5602673650
   H          1.2335697232        1.3162035885        0.6892737378
   O          1.4745972721        0.9366795963       -1.1609975493
   H          1.6763024745        0.0589601204       -0.8367208573
   H          0.5732314408        0.8744842357       -1.4770722483
    18
 Energy=    -196.276577342552
   O         -1.2522103349        0.6633339856       -1.6194188196
   H         -1.8072434648        1.2606666850       -2.1207806758
   H         -1.5016344128        0.8124893361       -0.7074033861
   O         -1.0668823871       -1.7646231247       -0.1606394913
   H         -1.4198582506       -1.1860357329        0.5152869172
   H         -1.1678051410       -1.2718376524       -0.9750158884
   O         -1.6542452063        0.7051412422        1.1256008262
   H         -2.1455157068        1.0956491202        1.8483654716
   H         -0.7360024597        0.8516400795        1.3527575761
   O          1.5918327352       -1.5088235927        0.2602239490
   H          2.0374819768       -2.3529838010        0.1893569175
   H          0.6672606042       -1.7130165645        0.1198549892
   O          0.9862537620        0.9775510329        1.5477614245
   H          1.3147307969        0.0785147761        1.5560370863
   H          1.2332773897        1.3153941271        0.6869053326
   O          1.4748482881        0.9383022708       -1.1627850090
   H          1.6791706533        0.0602214430       -0.8411357111
   H          0.5725883058        0.8751891573       -1.4761147066
    18
 Energy=    -196.271876022330
   O         -1.2518497164        0.6631896357       -1.6191911338
   H         -1.8051313111        1.2597267204       -2.1234280062
   H         -1.5044155866        0.8138212378       -0.7082836513
   O         -1.0655616169       -1.7640165913       -0.1599431876
   H         -1.4177909011       -1.1855388197        0.5164663326
   H         -1.1683048347       -1.2715069194       -0.9742587863
   O         -1.6561188186        0.7046567215        1.1270226247
   H         -2.1464839856        1.0944541100        1.8507849054
   H         -0.7376303915        0.8525298746        1.3522877574
   O          1.5920506363       -1.5081640964        0.2585668777
   H          2.0382414908       -2.3518958607        0.1860253634
   H          0.6676314738       -1.7126442149        0.1176096748
   O          0.9853303875        0.9774747785        1.5475649715
   H          1.3112268481        0.0775004174        1.5559008117
   H          1.2325256045        1.3142585890        0.6863431478
   O          1.4759554740        0.9377596954       -1.1629826766
   H          1.6797974377        0.0599010716       -0.8404233323
   H          0.5734326204        0.8749915005       -1.4756238327
    18
 Energy=    -196.260200603862
   O         -1.2510002133        0.6639270734       -1.6201281220
   H         -1.8040240819        1.2583383622       -2.1271504691
   H         -1.5065192400        0.8158430075       -0.7102581225
   O         -1.0661193179       -1.7636574102       -0.1591154403
   H         -1.4172567646       -1.1850120031        0.5177182368
   H         -1.1718874291       -1.2721089266       -0.9736245162
   O         -1.6587912950        0.7028348348        1.1317978418
   H         -2.1485850946        1.0921236230        1.8562204486
   H         -0.7401666293        0.8521262776        1.3555669831
   O          1.5950021810       -1.5071882984        0.2545172177
   H          2.0396249814       -2.3520292067        0.1853345248
   H          0.6703033784       -1.7103906712        0.1135464405
   O          0.9852128298        0.9757790871        1.5450169473
   H          1.3086211689        0.0748972417        1.5521434414
   H          1.2318881458        1.3125090446        0.6836250131
   O          1.4760189339        0.9392673492       -1.1609286241
   H          1.6791732320        0.0615367475       -0.8375879957
   H          0.5736584360        0.8767643290       -1.4740911127
    18
 Energy=    -196.242176409722
   O         -1.2530036613        0.6653476197       -1.6156340155
   H         -1.8144146171        1.2534541309       -2.1207877646
   H         -1.5064695144        0.8151158918       -0.7048341659
   O         -1.0666907889       -1.7600892088       -0.1580257053
   H         -1.4168377284       -1.1793624477        0.5175373116
   H         -1.1739013714       -1.2711604662       -0.9739217867
   O         -1.6587384693        0.6959789384        1.1360312095
   H         -2.1471845379        1.0868792323        1.8604960038
   H         -0.7396512362        0.8439899022        1.3587490859
   O          1.5948313285       -1.5121812731        0.2485268389
   H          2.0303987006       -2.3636172689        0.2089080375
   H          0.6687785242       -1.7095933776        0.1082182341
   O          0.9857859973        0.9701140676        1.5436880848
   H          1.3110055874        0.0698610835        1.5407516255
   H          1.2265143349        1.3150506313        0.6838622451
   O          1.4786350094        0.9522626500       -1.1638999791
   H          1.6911079988        0.0730990433       -0.8505975353
   H          0.5775432101        0.8833589440       -1.4793642221
    18
 Energy=    -196.219097277560
   O         -1.2557018141        0.6671317393       -1.6151287115
   H         -1.8235550002        1.2527690056       -2.1159316581
   H         -1.5049784269        0.8134989469       -0.7026213686
   O         -1.0676050070       -1.7601360555       -0.1583870743
   H         -1.4177254140       -1.1783579822        0.5162845599
   H         -1.1747462324       -1.2724332482       -0.9750256538
   O         -1.6585381036        0.6932786481        1.1402228529
   H         -2.1477044826        1.0848285387        1.8638503655
   H         -0.7396444479        0.8403450670        1.3643606632
   O          1.5969692586       -1.5116821870        0.2408555091
   H          2.0268782154       -2.3666397725        0.2194626162
   H          0.6697328375       -1.7058207257        0.1038347546
   O          0.9863283313        0.9665693427        1.5447100157
   H          1.3148697534        0.0675687347        1.5352083969
   H          1.2235872221        1.3178700315        0.6864979878
   O          1.4798253257        0.9562856331       -1.1625192891
   H          1.6930404715        0.0766195525       -0.8511373238
   H          0.5797976499        0.8865979209       -1.4808361841
    18
 Energy=    -196.177540068164
   O         -1.2593938370        0.6692840944       -1.6117851172
   H         -1.8362756207        1.2533491196       -2.1040323050
   H         -1.5006216507        0.8094180892       -0.6961413844
   O         -1.0692013561       -1.7617046320       -0.1589332465
   H         -1.4200862802       -1.1784054705        0.5140256661
   H         -1.1722258353       -1.2744299247       -0.9763567331
   O         -1.6543821491        0.6915577818        1.1394561286
   H         -2.1446070305        1.0842378016        1.8617537181
   H         -0.7357461266        0.8356158879        1.3665837582
   O          1.5979197462       -1.5119770944        0.2363963675
   H          2.0216514341       -2.3702794727        0.2358271227
   H          0.6692951799       -1.7026984181        0.1040572894
   O          0.9865604292        0.9642130534        1.5465276293
   H          1.3214173794        0.0676650551        1.5290820115
   H          1.2203976144        1.3244187650        0.6910722791
   O          1.4798068937        0.9600307364       -1.1630624108
   H          1.6956822783        0.0778052534       -0.8608905136
   H          0.5801630273        0.8908402815       -1.4825705241
    18
 Energy=    -196.147567372316
   O         -1.2610300645        0.6703642523       -1.6103847802
   H         -1.8417038134        1.2540108359       -2.0986536639
   H         -1.4984096505        0.8078012409       -0.6933276139
   O         -1.0694343866       -1.7635073454       -0.1594509183
   H         -1.4207735690       -1.1798034533        0.5129198018
   H         -1.1703148990       -1.2760211516       -0.9770157005
   O         -1.6515367787        0.6916179959        1.1382850506
   H         -2.1423388167        1.0846568466        1.8599952843
   H         -0.7330559882        0.8342978196        1.3669055777
   O          1.5983968457       -1.5100681597        0.2345111711
   H          2.0200134217       -2.3693684709        0.2431296449
   H          0.6692547765       -1.6999269261        0.1045861777
   O          0.9859539803        0.9627367071        1.5480804961
   H          1.3233561744        0.0672080813        1.5275846486
   H          1.2189380668        1.3265794415        0.6939325464
   O          1.4789964784        0.9601702867       -1.1630356178
   H          1.6942739424        0.0762354429       -0.8654677342
   H          0.5792231604        0.8933105020       -1.4826753922
    18
 Energy=    -196.100122361339
   O         -1.2627612951        0.6707222901       -1.6083488940
   H         -1.8491408998        1.2498685202       -2.0951552656
   H         -1.4968401355        0.8085751148       -0.6905060234
   O         -1.0679241636       -1.7660007750       -0.1627572746
   H         -1.4202982211       -1.1840272081        0.5105711230
   H         -1.1679158503       -1.2765757131       -0.9792721926
   O         -1.6522368781        0.6904004646        1.1322212302
   H         -2.1414976794        1.0849957035        1.8541286382
   H         -0.7332070097        0.8295268061        1.3608252591
   O          1.5991113596       -1.5041671372        0.2322284375
   H          2.0193934966       -2.3628532478        0.2796934645
   H          0.6710050790       -1.6981598659        0.1010133729
   O          0.9936859222        0.9548536921        1.5541399211
   H          1.3274195806        0.0581968464        1.5248109905
   H          1.2281708093        1.3261398628        0.7036134622
   O          1.4716739065        0.9656380515       -1.1611744782
   H          1.6863999929        0.0795256955       -0.8697479175
   H          0.5717292139        0.9016421082       -1.4809179841
    18
 Energy=    -196.036690618799
   O         -1.2643930722        0.6709295993       -1.6110236994
   H         -1.8548755778        1.2438983634       -2.1001750523
   H         -1.4990590388        0.8112911481       -0.6937111247
   O         -1.0643735395       -1.7690346727       -0.1661287585
   H         -1.4182390761       -1.1900295892        0.5089742967
   H         -1.1651289005       -1.2771538805       -0.9810726115
   O         -1.6429756490        0.6913682153        1.1314372879
   H         -2.1321552804        1.0871125902        1.8527704411
   H         -0.7238901190        0.8282990357        1.3611405287
   O          1.5977428052       -1.5008725918        0.2310577303
   H          2.0174934712       -2.3560349401        0.3245380836
   H          0.6716546740       -1.7016020196        0.0957790916
   O          0.9933421791        0.9435490417        1.5591998835
   H          1.3195617152        0.0444503344        1.5213294638
   H          1.2308801564        1.3209064181        0.7121999072
   O          1.4626828510        0.9758152450       -1.1601170938
   H          1.6787194471        0.0886291154       -0.8729572069
   H          0.5626293346        0.9121560357       -1.4796214173
    18
 Energy=    -195.943782741141
   O         -1.2654102030        0.6697143952       -1.6149926959
   H         -1.8575988656        1.2366890243       -2.1090414768
   H         -1.5030982745        0.8143616378       -0.6991251313
   O         -1.0616019896       -1.7690454797       -0.1701071918
   H         -1.4164028049       -1.1932762117        0.5072686061
   H         -1.1656060436       -1.2752168843       -0.9834633961
   O         -1.6423100181        0.6910473855        1.1316032475
   H         -2.1301109207        1.0879507186        1.8532332522
   H         -0.7227699696        0.8266305482        1.3602845655
   O          1.5972562339       -1.5005514832        0.2297823424
   H          2.0169496611       -2.3503051751        0.3639759725
   H          0.6735812047       -1.7086228879        0.0892029310
   O          0.9989941924        0.9340346440        1.5639823123
   H          1.3157316442        0.0319093526        1.5183842278
   H          1.2395187691        1.3157908677        0.7198010796
   O          1.4555317508        0.9869032016       -1.1574922838
   H          1.6744310572        0.1014101710       -0.8672905842
   H          0.5560150805        0.9190362245       -1.4776417386
    18
 Energy=    -195.882494206751
   O         -1.2663344484        0.6686111351       -1.6187004971
   H         -1.8589999721        1.2329684440       -2.1151682654
   H         -1.5062033899        0.8146666643       -0.7036253562
   O         -1.0611129313       -1.7681475987       -0.1717966384
   H         -1.4163036858       -1.1937384383        0.5065288619
   H         -1.1668438191       -1.2736712622       -0.9845364319
   O         -1.6415143877        0.6910611661        1.1341353490
   H         -2.1290403146        1.0886399468        1.8555793342
   H         -0.7218775166        0.8257305401        1.3629672194
   O          1.5966072691       -1.5041127262        0.2305491341
   H          2.0164409096       -2.3508708920        0.3821148392
   H          0.6742599012       -1.7158682280        0.0867896809
   O          1.0014359375        0.9306305238        1.5645174108
   H          1.3135134906        0.0270294940        1.5160961358
   H          1.2434854748        1.3136334483        0.7213373463
   O          1.4534489236        0.9944238455       -1.1566300845
   H          1.6767520324        0.1106588835       -0.8645221363
   H          0.5543310857        0.9213598714       -1.4767560117
    18
 Energy=    -195.813238264814
   O         -1.2678214859        0.6675318839       -1.6248126420
   H         -1.8615885748        1.2304936573       -2.1215485133
   H         -1.5082077527        0.8132920415       -0.7098261617
   O         -1.0593767717       -1.7684412283       -0.1718989697
   H         -1.4145028224       -1.1943952512        0.5067677705
   H         -1.1651501408       -1.2735141999       -0.9843588586
   O         -1.6434442410        0.6915066976        1.1382629339
   H         -2.1302147669        1.0902285054        1.8595861729
   H         -0.7235516486        0.8241936933        1.3672249821
   O          1.5932322189       -1.5106122219        0.2346765573
   H          2.0121069258       -2.3558287819        0.3971105025
   H          0.6717847885       -1.7238028292        0.0873122537
   O          1.0055405451        0.9302000213        1.5603553838
   H          1.3147566958        0.0257599822        1.5093119923
   H          1.2481141768        1.3146596307        0.7179892627
   O          1.4541478618        1.0026671436       -1.1547518153
   H          1.6851820373        0.1197742403       -0.8660388588
   H          0.5548210480        0.9235025728       -1.4728337116
    18
 Energy=    -195.316621624931
   O         -1.2511889679        0.6713553789       -1.6163370458
   H         -1.8448174933        1.2308198845       -2.1171728280
   H         -1.4980699380        0.8164460477       -0.7029749465
   O         -1.0527626730       -1.7640470581       -0.1688194530
   H         -1.4094302875       -1.1908826820        0.5097840032
   H         -1.1554946910       -1.2675283829       -0.9806982480
   O         -1.6405445333        0.6896291165        1.1366015902
   H         -2.1249212999        1.0893630430        1.8589752995
   H         -0.7198868910        0.8209220861        1.3632808833
   O          1.5801362724       -1.4738104412        0.2309989896
   H          1.9901364550       -2.3196160045        0.4119537884
   H          0.6601876263       -1.6828154573        0.0690013604
   O          1.0022710910        0.9179803858        1.5589739335
   H          1.3061109459        0.0125929204        1.4942690649
   H          1.2425611417        1.3122630795        0.7205028910
   O          1.4438812092        0.9722176198       -1.1587884590
   H          1.6974268137        0.0954200894       -0.8703919315
   H          0.5475192446        0.8698153479       -1.4786022224
    18
 Energy=    -194.555619613078
   O         -1.2439240115        0.6651470781       -1.6190009870
   H         -1.8466634270        1.2150006628       -2.1195987022
   H         -1.4902243909        0.8092142019       -0.7053201746
   O         -1.0543398582       -1.7694340356       -0.1614258938
   H         -1.4084619290       -1.1901378678        0.5132928245
   H         -1.1423102405       -1.2724523949       -0.9747538109
   O         -1.6332066543        0.6921636804        1.1322426263
   H         -2.1079933254        1.0986643080        1.8572024159
   H         -0.7095707180        0.8176853781        1.3498955624
   O          1.5552426260       -1.5150476792        0.3061684040
   H          1.9368835180       -2.3676555710        0.5150747285
   H          0.6366764939       -1.7038115681        0.1142405655
   O          1.0137555142        0.9022243033        1.5084708671
   H          1.3117176984       -0.0043805850        1.4341879398
   H          1.2488163816        1.3014876331        0.6708748892
   O          1.4416210941        1.0394376630       -1.1789443671
   H          1.7621514263        0.1604292939       -0.9768641029
   H          0.5425991459        0.9041003492       -1.4784025246
    18
 Energy=    -194.502946757975
   O         -1.2432403410        0.6644424603       -1.6192695143
   H         -1.8468822606        1.2133447944       -2.1198237077
   H         -1.4893951586        0.8084817004       -0.7055450793
   O         -1.0555666710       -1.7700137254       -0.1609487306
   H         -1.4093837842       -1.1901019666        0.5134010617
   H         -1.1422631050       -1.2730685651       -0.9744357163
   O         -1.6325814339        0.6923701913        1.1317102430
   H         -2.1063485046        1.0995413773        1.8569607019
   H         -0.7086376737        0.8173190628        1.3483840703
   O          1.5541413196       -1.5211250174        0.3138388202
   H          1.9332505706       -2.3742701820        0.5251474660
   H          0.6357541676       -1.7081377099        0.1193571194
   O          1.0148884816        0.9012544477        1.5049099526
   H          1.3122250028       -0.0055461147        1.4305085203
   H          1.2496359853        1.3002921779        0.6671186066
   O          1.4412656513        1.0476710129       -1.1822645810
   H          1.7674907136        0.1688260651       -0.9887688278
   H          0.5420419419        0.9097294518       -1.4799232550
    18
 Energy=    -193.913003615922
   O         -1.2366971895        0.6571855786       -1.6218949983
   H         -1.8492341111        1.1965385774       -2.1220236840
   H         -1.4814360503        0.8009896582       -0.7077532605
   O         -1.0682363305       -1.7757870632       -0.1563687062
   H         -1.4189597476       -1.1897650418        0.5143049217
   H         -1.1421373106       -1.2792687768       -0.9713779555
   O         -1.6262365244        0.6944116729        1.1263341005
   H         -2.0897181688        1.1082620971        1.8544442789
   H         -0.6992779095        0.8135869188        1.3331596959
   O          1.5436842787       -1.5818852002        0.3906924120
   H          1.8965053041       -2.4401957371        0.6253244353
   H          0.6276263417       -1.7509923218        0.1705277521
   O          1.0257714382        0.8919142194        1.4692725567
   H          1.3167955122       -0.0167863371        1.3931139919
   H          1.2571277932        1.2891706923        0.6296932741
   O          1.4384050794        1.1294341735       -1.2151604862
   H          1.8179191727        0.2570260537       -1.1097803859
   H          0.5377371442        0.9670601202       -1.4956311215
    18
 Energy=    -193.544907161734
   O         -1.2303510967        0.6497782128       -1.6245403325
   H         -1.8515641868        1.1795297318       -2.1242297007
   H         -1.4737205824        0.7933999029       -0.7100044154
   O         -1.0803633250       -1.7815653374       -0.1517238672
   H         -1.4279217336       -1.1895506533        0.5153245617
   H         -1.1413955388       -1.2855616629       -0.9681105793
   O         -1.6201953275        0.6964849888        1.1210247832
   H         -2.0733512283        1.1169216729        1.8518562031
   H         -0.6903727591        0.8098852487        1.3180075545
   O          1.5327460490       -1.6423138791        0.4678066893
   H          1.8577439731       -2.5052789986        0.7245154579
   H          0.6201000182       -1.7930500424        0.2216610589
   O          1.0366045744        0.8826023356        1.4330442159
   H          1.3213355437       -0.0278576540        1.3541599822
   H          1.2641967260        1.2789543363        0.5920098860
   O          1.4364169061        1.2102227435       -1.2474688101
   H          1.8621257470        0.3530144563       -1.2334055596
   H          0.5350995359        1.0262486333       -1.5120673080
    18
 Energy=    -193.441078810548
   O         -1.2240209762        0.6423800787       -1.6271417673