   220
Energy=    -454.473009584756    
N         -4.727951765        -4.385799170         7.184849969    
H1        -4.954584691        -4.784337629         6.281410130    
H2        -5.141482925        -3.466900143         7.240191001    
H3        -5.133224065        -4.967127487         7.904436008    
CA        -3.255545209        -4.309718719         7.371830520    
HA        -3.056040304        -3.798204883         8.314731380    
CB        -2.637016362        -5.711744674         7.461809613    
HB        -2.772095669        -6.241253363         6.516228787    
HB        -1.568397705        -5.628343128         7.669129420    
OG        -3.261508765        -6.441583802         8.507249542    
HG        -2.816447317        -7.302368667         8.579810533    
C         -2.578032202        -3.517919384         6.252903065    
O         -3.097075206        -3.446504084         5.138828578    
N         -1.402819830        -2.936438002         6.516405189    
H         -1.018363503        -3.007405017         7.450003405    
CA       -0.5550798859        -2.314397845         5.485539471    
HA        -1.193093974        -1.775904993         4.782234565    
CB        0.3873224161        -1.284856074         6.124762455    
HB        0.8969352430        -1.736400336         6.977731072    
HB         1.153187380        -1.015765537         5.397141466    
CG       -0.2779248735       -0.1262803571E-01     6.551321909    
CD       -0.6129867681        0.3272806405         7.817083097    
HD       -0.4326571279       -0.2857841316         8.695864498    
NE        -1.230152036         1.565017074         7.816903397    
HE        -1.571780533         2.017120488         8.659504791    
CE        -1.321649517         2.087406526         6.543451005    
CZ        -1.855198748         3.278827801         6.029095900    
HZ        -2.318504736         3.998694659         6.690483129    
CH        -1.773806884         3.524948399         4.647169429    
HH        -2.177139937         4.441996648         4.233769306    
CZ        -1.158875281         2.582795486         3.801955630    
HZ        -1.087848492         2.784098049         2.740032963    
CE       -0.6322505419         1.386317395         4.328706819    
HE       -0.1576386678        0.6707548400         3.672980287    
CD       -0.7048740787         1.105010205         5.711233175    
C         0.2287381223        -3.362609379         4.678074006    
O         0.6628919582        -4.384725332         5.216167697    
N         0.4219922329        -3.091900772         3.384210063    
H         0.9490245514E-02    -2.243013200         3.012855566    
CA         1.133718980        -3.954110290         2.420779596    
HA         1.735717876        -4.680678626         2.968518346    
CB        0.1556008024        -4.742265784         1.524526231    
HB        0.7386442439        -5.399179771        0.8779462497    
CG       -0.8195244143        -5.609965223         2.321631191    
HG        -1.508185610        -4.988150255         2.894780877    
HG        -1.391017050        -6.236558341         1.637067254    
HG       -0.2634673234        -6.255367801         3.002080150    
OG       -0.6197581218        -3.890465334        0.7065681541    
HG       -0.9547155322        -3.167272898         1.264558642    
C          2.087754684        -3.134225209         1.546093129    
O          1.786178558        -1.987964839         1.208521525    
N          3.231574295        -3.712518945         1.170473421    
H          3.414929185        -4.656855054         1.479566302    
CA         4.226892540        -3.098622004        0.2794240651    
HA         4.066148175        -2.020285848        0.2402932771    
CB         5.630374865        -3.334618267        0.8516167896    
HB         5.707328886        -2.804648900         1.800061898    
HB         5.745407366        -4.399147353         1.063072444    
CG         6.778696991        -2.902970716       -0.1212526969E-01
CD         7.702149119        -3.732108534       -0.5502111116    
HD         7.719481979        -4.811354978       -0.4217594526    
NE         8.632295132        -2.998309786        -1.260062969    
HE         9.437728322        -3.415551146        -1.717188778    
CE         8.347169150        -1.650289019        -1.226787714    
CZ         8.975096310       -0.5261511659        -1.783311887    
HZ         9.873300357       -0.6395936555        -2.375512946    
CH         8.426391020        0.7466790757        -1.552878741    
HH         8.901552172         1.627815473        -1.967718591    
CZ         7.261071950        0.8751684361       -0.7756310189    
HZ         6.847085020         1.858788018       -0.5925773083    
CE         6.635229427       -0.2624697176       -0.2282256041    
HE         5.744052044       -0.1492249436        0.3722408116    
CD         7.161700065        -1.555642577       -0.4351520469    
C          4.097097821        -3.643372091        -1.149769417    
O          3.972132159        -4.854448804        -1.351653804    
N          4.138277745        -2.752504351        -2.144870293    
H          4.178002683        -1.768264128        -1.893960676    
CA         3.884658459        -3.074398278        -3.562321222    
HA         3.666002515        -4.139930901        -3.648159020    
CB         2.626394181        -2.328068776        -4.048557451    
HB         2.810863114        -1.252779063        -4.036234635    
HB         2.412592006        -2.631184154        -5.074263469    
CG         1.391493198        -2.643975913        -3.190748335    
HG         1.503074094        -2.193852251        -2.201324948    
HG         1.315765295        -3.726658290        -3.061317976    
CD        0.1084777616        -2.113480399        -3.844065495    
OE       -0.9552595471E-01   -0.8751316210        -3.862743527    
OE       -0.7222606287        -2.935658052        -4.302411708    
C          5.110762729        -2.846399724        -4.475119740    
O          4.974191991        -2.681090348        -5.690086943    
N          6.320442962        -2.803931826        -3.899490522    
H          6.373521384        -2.969044798        -2.901818536    
CA         7.584696689        -2.583886659        -4.625970996    
HA         8.414047288        -2.900151993        -3.995130094    
HA         7.592482684        -3.206179156        -5.521489501    
C          7.846997564        -1.130371616        -5.056813024    
O          8.846160163       -0.8574639169        -5.727215506    
N          6.957316162       -0.2019661848        -4.687245522    
H          6.201339944       -0.5232136369        -4.104824897    
CA         7.029242686         1.229886171        -5.012262599    
HA         8.075638220         1.542896647        -5.029892312    
CB         6.420284356         1.424018087        -6.415559248    
HB         6.964676786        0.8144515233        -7.137313914    
HB         5.380282882         1.095180269        -6.415114340    
CG         6.467440261         2.872217090        -6.876979363    
OD         5.485549528         3.600616061        -6.818141235    
ND         7.605868603         3.340183425        -7.340837216    
HD         7.644166945         4.301351641        -7.648030858    
HD         8.415977554         2.740562101        -7.402854752    
C          6.301899597         2.113175395        -3.974249335    
O          6.778423573         3.205978094        -3.653565434    
N          5.164109444         1.635880546        -3.444336660    
H          4.830144284        0.7436981784        -3.777975155    
CA         4.316083735         2.327204576        -2.455975833    
HA         4.933318109         3.043847068        -1.909601152    
CB         3.216811405         3.125305088        -3.188816530    
HB         2.636947251         3.686637202        -2.453886263    
HB         3.703663786         3.850345282        -3.843841143    
CG         2.251022572         2.268802313        -4.032309977    
HG         2.816102707         1.699244745        -4.771132439    
HG         1.712514808         1.576301034        -3.384612304    
CD         1.247451021         3.171943352        -4.766821138    
HD        0.6224225593         3.695329761        -4.040702683    
HD         1.806420183         3.921619381        -5.330022650    
CE        0.3588854195         2.414284662        -5.765195625    
HE        0.9926263887         1.821817477        -6.432001290    
HE       -0.1607150623         3.156236942        -6.379301848    
NZ       -0.6476304924         1.543635868        -5.102530161    
HZ        -1.183202211         2.053139159        -4.412534728    
HZ       -0.2193569203        0.7383657012        -4.642247801    
HZ        -1.298643899         1.169278518        -5.779900919    
C          3.729538569         1.374195748        -1.406194184    
O          3.650057812        0.1627336316        -1.629259570    
N          3.297540739         1.939742582       -0.2779963241    
H          3.403180488         2.939246993       -0.1875446615    
CA         2.518666001         1.250611427        0.7581512858    
HA         2.716769061        0.1822126026        0.6923132018    
CB         2.957029356         1.709473957         2.155053119    
HB         2.950263888         2.799993059         2.196261797    
HB         2.220188429         1.356868400         2.877899651    
CG         4.294612569         1.204958243         2.604745239    
CD         5.478373372         1.839771467         2.444825989    
HD         5.607362697         2.804356743         1.961999200    
NE         6.494226042         1.072054669         2.984357035    
HE         7.470262628         1.350542980         2.969259712    
CE         6.011564426       -0.9933081947E-01     3.529695965    
CZ         6.623902733        -1.177971619         4.186464157    
HZ         7.694797079        -1.186180635         4.338592121    
CH         5.827299179        -2.242331058         4.644948379    
HH         6.283759999        -3.082528079         5.154985851    
CZ         4.435136212        -2.215133237         4.439823437    
HZ         3.824692115        -3.036620316         4.795359986    
CE         3.832542502        -1.127358748         3.776930020    
HE         2.763380488        -1.113548895         3.624425890    
CD         4.602894757       -0.4211588089E-01     3.303676230    
C          1.009674307         1.462174275        0.5564416002    
O         0.5642889745         2.578665082        0.2725190574    
N         0.2263624761        0.3955696913        0.7410494497    
H         0.6833575065       -0.4850654981        0.9606748201    
CA        -1.230116403        0.3572289331        0.5068703776    
HA        -1.632682710         1.370257939        0.5325111321    
CB        -1.519100063       -0.2355331364       -0.8871400625    
HB        -1.067818007        -1.226971863       -0.9532473803    
CG        -3.007653241       -0.3466264450        -1.223192237    
HG        -3.493277974        0.6223805056        -1.100875279    
HG        -3.127631837       -0.6807604413        -2.254526469    
HG        -3.488115191        -1.075969622       -0.5721345530    
OG       -0.9521945875        0.5863758860        -1.883956825    
HG       -0.6485069509       -0.1434441140E-01    -2.602626907    
C         -1.932880870       -0.4647772386         1.590328863    
O         -1.489160133        -1.566011264         1.922399762    
N         -3.040906871        0.4305249841E-01     2.135250979    
H         -3.358621657        0.9516117446         1.826935767    
CA        -3.877722522       -0.6718562318         3.108108279    
HA        -3.233632272        -1.237644642         3.781467939    
CB        -4.650818384        0.3446016890         3.957374541    
HB        -3.932147174        0.9833899893         4.473217521    
HB        -5.240043860        0.9828171508         3.296544654    
CG        -5.569579826       -0.2478858404         4.983541472    
CD        -6.881800903       -0.5211044492         4.798323029    
HD        -7.431095247       -0.3413503162         3.877558853    
NE        -7.415472889        -1.054866276         5.956044991    
HE        -8.391338827        -1.322483514         6.047722794    
CE        -6.469566871        -1.146854995         6.954099894    
CZ        -6.515176043        -1.604756414         8.279882999    
HZ        -7.444685722        -1.968816133         8.698946570    
CH        -5.345890781        -1.565243320         9.059833809    
HH        -5.367453898        -1.898589532         10.09150154    
CZ        -4.148766214        -1.082308562         8.499987506    
HZ        -3.250532939        -1.042767427         9.105522284    
CE        -4.114438919       -0.6316784181         7.165163705    
HE        -3.192246752       -0.2532675344         6.747394151    
CD        -5.272604194       -0.6450526157         6.358379056    
C         -4.824245662        -1.661389183         2.406993554    
O         -5.523677459        -1.288397261         1.458499630    
N         -4.852287591        -2.917760592         2.874328546    
H         -4.254618370        -3.135099222         3.667101090    
CA        -5.655361518        -4.024922118         2.313835369    
HA        -6.474937863        -3.607340578         1.724725203    
CB        -4.787988768        -4.892593208         1.375419430    
HB        -5.406881078        -5.694125593        0.9679725401    
HB        -3.975250526        -5.345291619         1.946301753    
CG        -4.195509919        -4.091483216        0.2040621763    
HG        -3.462294926        -3.383431581        0.5913574343    
HG        -4.993822378        -3.536276194       -0.2907709427    
CD        -3.509509062        -4.991549361       -0.8309319568    
HD        -4.254171742        -5.634911145        -1.303543271    
HD        -2.757796833        -5.610680905       -0.3389752133    
CE        -2.835699729        -4.106088666        -1.886221446    
HE        -3.586662344        -3.439623073        -2.321857464    
HE        -2.083539097        -3.486879694        -1.387683028    
NZ        -2.190530018        -4.903260262        -2.960191045    
HZ        -1.509070236        -5.548357331        -2.584555515    
HZ        -2.869989612        -5.431210754        -3.491091872    
HZ        -1.701765512        -4.280319127        -3.607603143    
C         -6.304430888        -4.881808374         3.410543378    
O         -5.843458999        -4.923010172         4.552489751    
N         -7.372044984        -5.589497977         3.078446615    
HN        -7.728648725        -5.548880373         2.137093478    
HN        -7.813723484        -6.164883605         3.777431792    
   220
Energy=    -453.960280696336    
N         -4.748003173        -4.258368391         7.201668396    
H1        -4.988953253        -4.668479455         6.307190649    
H2        -5.141250981        -3.329816370         7.242661833    
H3        -5.160934213        -4.817594172         7.934242601    
CA        -3.272969797        -4.210570932         7.377955361    
HA        -3.056587854        -3.689576922         8.311900749    
CB        -2.683546822        -5.623871850         7.484690516    
HB        -2.835898032        -6.164003530         6.547797171    
HB        -1.612098548        -5.559951783         7.684188296    
OG        -3.316473203        -6.325184823         8.544489146    
HG        -2.889469683        -7.194226306         8.626537946    
C         -2.587275176        -3.449349683         6.243182532    
O         -3.112042489        -3.384409147         5.131395797    
N         -1.400308093        -2.885204037         6.491228737    
H         -1.011242607        -2.949844332         7.423375878    
CA       -0.5514134528        -2.282637176         5.448959988    
HA        -1.189357559        -1.757718682         4.735365718    
CB        0.3882965072        -1.239474340         6.069706927    
HB        0.9035999137        -1.676513494         6.926772644    
HB         1.149860269       -0.9769332022         5.334997905    
CG       -0.2816722032        0.3520927043E-01     6.481469666    
CD       -0.6146955995        0.3902925688         7.743597646    
HD       -0.4295239602       -0.2105031704         8.629814261    
NE        -1.236856601         1.625438480         7.728943510    
HE        -1.578039431         2.087147281         8.566501804    
CE        -1.334145993         2.130891862         6.449206475    
CZ        -1.874437025         3.313004117         5.920607545    
HZ        -2.338023633         4.040094781         6.573845956    
CH        -1.799414914         3.540368298         4.535111978    
HH        -2.208005529         4.450038961         4.110721004    
CZ        -1.184036621         2.589075843         3.700527305    
HZ        -1.117953196         2.775997361         2.635660832    
CE       -0.6506015024         1.402050980         4.241618057    
HE       -0.1757042523        0.6793866251         3.593935791    
CD       -0.7167129622         1.139546535         5.628163306    
C         0.2347289412        -3.344130186         4.661104649    
O         0.6656771836        -4.358779914         5.215653957    
N         0.4335901564        -3.092255078         3.364290340    
H         0.2343857226E-01    -2.248433981         2.979045228    
CA         1.148555107        -3.966980645         2.413799087    
HA         1.761705136        -4.676117879         2.971837958    
CB        0.1715906441        -4.780064991         1.539022977    
HB        0.7560214023        -5.438376973        0.8950455235    
CG       -0.7845457982        -5.649632046         2.357095434    
HG        -1.475299748        -5.029442845         2.929424529    
HG        -1.355044667        -6.292164670         1.686686280    
HG       -0.2136125936        -6.279604009         3.039728999    
OG       -0.6222508910        -3.946891215        0.7192516112    
HG       -0.9571651269        -3.219816071         1.271288193    
C          2.088031017        -3.154168015         1.515477532    
O          1.782443518        -2.007642029         1.182445963    
N          3.222422725        -3.735911598         1.117272850    
H          3.409734257        -4.680255976         1.423958679    
CA         4.206152308        -3.120219179        0.2143499918    
HA         4.049594866        -2.040814415        0.1846223987    
CB         5.616088772        -3.364484415        0.7679154805    
HB         5.704010390        -2.846955784         1.722661357    
HB         5.732603737        -4.431734142        0.9644687993    
CG         6.755512227        -2.922232842       -0.1014798808    
CD         7.659576482        -3.746323651       -0.6788115781    
HD         7.664182477        -4.829164833       -0.5839068768    
NE         8.588969960        -3.003129653        -1.379819646    
HE         9.381819295        -3.416519543        -1.861769552    
CE         8.323109793        -1.653242246        -1.300264259    
CZ         8.959261516       -0.5205358893        -1.829400236    
HZ         9.845982336       -0.6273983305        -2.439849586    
CH         8.434004581        0.7518681214        -1.547678848    
HH         8.915960112         1.639257064        -1.940783546    
CZ         7.283439257        0.8715336998       -0.7473841183    
HZ         6.887650277         1.854507724       -0.5248656424    
CE         6.649017170       -0.2743891620       -0.2278443867    
HE         5.769451000       -0.1681058217        0.3907416012    
CD         7.152109140        -1.567579693       -0.4863838461    
C          4.054651298        -3.654206688        -1.217578663    
O          3.919228945        -4.863421388        -1.423833658    
N          4.088741935        -2.758611958        -2.208696606    
H          4.138094279        -1.775925900        -1.953441866    
CA         3.835327335        -3.075070820        -3.629523473    
HA         3.644654659        -4.145238959        -3.721633751    
CB         2.555602055        -2.361543957        -4.109837583    
HB         2.707817339        -1.281406501        -4.083298574    
HB         2.353531612        -2.659001446        -5.139855839    
CG         1.328429575        -2.728451495        -3.262546261    
HG         1.424029177        -2.290151728        -2.266623733    
HG         1.289710220        -3.814666703        -3.149748074    
CD        0.3062397168E-01    -2.230173390        -3.913017751    
OE       -0.1582770421       -0.9924717527        -4.014154786    
OE       -0.8228808650        -3.076443024        -4.277328093    
C          5.053686711        -2.812916107        -4.544553519    
O          4.908702435        -2.623193165        -5.754970317    
N          6.266735990        -2.776384103        -3.975646106    
H          6.326866397        -2.961829558        -2.981954342    
CA         7.526901855        -2.562754413        -4.710412473    
HA         8.355706068        -2.908202470        -4.094957755    
HA         7.514297613        -3.166691184        -5.618442166    
C          7.814934644        -1.106680093        -5.116288327    
O          8.822257332       -0.8407365657        -5.777211199    
N          6.941653958       -0.1682546246        -4.733158760    
H          6.176941459       -0.4855944822        -4.160075903    
CA         7.047386176         1.268049568        -5.027294131    
HA         8.101234245         1.555119141        -5.043963952    
CB         6.437312636         1.507574039        -6.423038497    
HB         6.959599940        0.8963243037        -7.159696890    
HB         5.387931631         1.209845676        -6.422664755    
CG         6.524921558         2.962499677        -6.856597393    
OD         5.565952153         3.718884526        -6.777019960    
ND         7.673670644         3.405234315        -7.319876224    
HD         7.738893654         4.370467448        -7.609170103    
HD         8.464865929         2.783079063        -7.399567244    
C          6.348508226         2.147672869        -3.966900189    
O          6.849081816         3.224993465        -3.630838562    
N          5.206688860         1.682553943        -3.434831426    
H          4.852405357        0.8032867192        -3.781543265    
CA         4.387331496         2.365506496        -2.417595180    
HA         5.028337861         3.043049088        -1.850760079    
CB         3.305337583         3.216548540        -3.113484555    
HB         2.760595823         3.783230170        -2.356729605    
HB         3.800241602         3.936078369        -3.767340344    
CG         2.297466512         2.403395532        -3.947543285    
HG         2.825115230         1.859058292        -4.730844995    
HG         1.779446507         1.690725597        -3.306081371    
CD         1.267877819         3.337320706        -4.599230556    
HD        0.6720853584         3.824209808        -3.825934713    
HD         1.800628897         4.113875234        -5.152132495    
CE        0.3287068573         2.619300816        -5.579099652    
HE        0.9221603465         2.129131541        -6.356228090    
HE       -0.2808877815         3.384783902        -6.068663565    
NZ       -0.5691931237         1.637644149        -4.910675685    
HZ        -1.013895010         2.040940785        -4.096574031    
HZ       -0.8242316480E-01    0.7900308295        -4.614455169    
HZ        -1.302220461         1.334399723        -5.538265362    
C          3.776563411         1.393078011        -1.400212549    
O          3.686174030        0.1892698851        -1.657878174    
N          3.328495853         1.933638108       -0.2660494206    
H          3.445070439         2.928822227       -0.1461775549    
CA         2.525039568         1.223620901        0.7366433183    
HA         2.731870025        0.1572856674        0.6579251231    
CB         2.929066721         1.659281357         2.151465994    
HB         2.891356495         2.747897764         2.219437000    
HB         2.193086760         1.267374538         2.854347438    
CG         4.275623948         1.181377413         2.604993576    
CD         5.445127547         1.844759658         2.456545052    
HD         5.553500899         2.818109307         1.986406364    
NE         6.476700682         1.093345146         2.989154269    
HE         7.446223216         1.393978270         2.980386933    
CE         6.019902359       -0.9789333631E-01     3.514329333    
CZ         6.655432949        -1.173277676         4.154187151    
HZ         7.726248176        -1.160701340         4.306573474    
CH         5.882050312        -2.261758061         4.595475908    
HH         6.356581410        -3.099838255         5.092333596    
CZ         4.489632563        -2.261470723         4.390277414    
HZ         3.897109594        -3.101506172         4.732543728    
CE         3.863646703        -1.176648057         3.744443313    
HE         2.794442117        -1.183582107         3.591770119    
CD         4.610332473       -0.6762652536E-01     3.288707170    
C          1.018652063         1.424667280        0.4982725201    
O         0.5732428043         2.530895517        0.1767114723    
N         0.2374916060        0.3583601978        0.6934144343    
H         0.6945717525       -0.5136503074        0.9449567101    
CA        -1.213966536        0.2962288545        0.4309502428    
HA        -1.628551392         1.304462720        0.4044190351    
CB        -1.468205991       -0.3617242242       -0.9394085132    
HB        -1.003513819        -1.349159449       -0.9510645718    
CG        -2.946909492       -0.5072569206        -1.306822707    
HG        -3.446527395        0.4608169600        -1.249510628    
HG        -3.036052894       -0.8975783525        -2.321604481    
HG        -3.437103293        -1.206972959       -0.6305974864    
OG       -0.8864520040        0.4286567822        -1.951794027    
HG       -0.6569293819       -0.1794800392        -2.690812765    
C         -1.926517789       -0.4924509819         1.530984070    
O         -1.483034958        -1.580652384         1.903832889    
N         -3.043790643        0.2762060762E-01     2.044578935    
H         -3.360849193        0.9245464647         1.703289114    
CA        -3.887903238       -0.6616143746         3.028588289    
HA        -3.247838311        -1.206387684         3.723055134    
CB        -4.670206131        0.3772292635         3.840423690    
HB        -3.957108264         1.035728311         4.338812708    
HB        -5.258698911        0.9908151686         3.156029170    
CG        -5.590926237       -0.1851312972         4.880975902    
CD        -6.906369159       -0.4493049403         4.705759922    
HD        -7.456484113       -0.2857931441         3.782461529    
NE        -7.442048430       -0.9501031659         5.877201970    
HE        -8.420296654        -1.205549835         5.977778051    
CE        -6.494765232        -1.026241367         6.875409156    
CZ        -6.541806705        -1.449207373         8.212698057    
HZ        -7.474066423        -1.792261537         8.643218276    
CH        -5.370122881        -1.402173184         8.988621620    
HH        -5.392554924        -1.708493491         10.02861568    
CZ        -4.169358481       -0.9468174461         8.413663273    
HZ        -3.269167334       -0.9013372878         9.015864517    
CE        -4.133699926       -0.5312317416         7.067551295    
HE        -3.208599906       -0.1737196204         6.637970539    
CD        -5.294054385       -0.5529508030         6.264100640    
C         -4.825174339        -1.672712953         2.345637297    
O         -5.509681459        -1.329825305         1.375149482    
N         -4.863634852        -2.912755248         2.854040051    
H         -4.278168047        -3.105016187         3.662246236    
CA        -5.668163176        -4.033301470         2.325241157    
HA        -6.478651138        -3.631069488         1.713020959    
CB        -4.798174621        -4.941197814         1.427821051    
HB        -5.417630448        -5.756523845         1.049930959    
HB        -3.989938567        -5.372506717         2.021381606    
CG        -4.197156748        -4.189934380        0.2281125354    
HG        -3.463504297        -3.469489750        0.5910794873    
HG        -4.991481757        -3.651298347       -0.2909491813    
CD        -3.509767136        -5.130419733       -0.7703130135    
HD        -4.253647128        -5.791555041        -1.219079963    
HD        -2.758002229        -5.729727245       -0.2546158758    
CE        -2.836832408        -4.282364052        -1.856716735    
HE        -3.589282012        -3.633225675        -2.315035122    
HE        -2.086564395        -3.643929605        -1.380254708    
NZ        -2.188284998        -5.110632317        -2.904908771    
HZ        -1.496376108        -5.733569713        -2.511336102    
HZ        -2.864072030        -5.664976776        -3.413210765    
HZ        -1.713094128        -4.501632438        -3.575109562    
C         -6.335655413        -4.844940959         3.445060359    
O         -5.880209980        -4.856225267         4.590272934    
N         -7.411855133        -5.546863574         3.130328422    
HN        -7.763612258        -5.531052080         2.186253299    
HN        -7.865866155        -6.092952497         3.844818705    
   220
Energy=    -452.432866810112    
N         -4.748522258        -4.237549400         7.189819047    
H1        -4.991525840        -4.647539670         6.295827569    
H2        -5.141051185        -3.308709272         7.231348526    
H3        -5.160491471        -4.796482684         7.923204090    
CA        -3.273332441        -4.191086473         7.363386723    