SystemName     benzene                                                                         
SystemLabel     benzene                                                                         
SpinPolarized              F     # default value
NonCollinearSpin              F     # default value
SpinOrbit              F     # default value
Spin     none                                 # default value
TimeReversalSymmetry              T     # default value
DebugObjects.Node         0     # default value
DebugObjects              F     # default value
XML.Write              T     # label by itself
timer_report_threshold          0.000000000         # default value
UseParallelTimer              T     # default value
UseTreeTimer              F     # default value
alloc_report_level         0     # default value
alloc_report_threshold          0.000000000         # default value
xc.functional     LDA     # default value
xc.authors     PZ     # default value
MM.Cutoff          30.00000000     Bohr     # default value
MM.UnitsEnergy     eV     # default value
MM.UnitsDistance     Ang     # default value
WriteIonPlotFiles              F     # default value
Atom.Debug.KB.Generation              F     # default value
KB.New.Reference.Orbitals              F     # default value
user-basis              F     # default value
user-basis-netcdf              F     # default value
ReparametrizePseudos              F     # default value
Restricted.Radial.Grid              T     # default value
Rmax.Radial.Grid          0.000000000         # default value
PAO.BasisSize     standard            # default value
PAO.BasisType     split          # default value
PAO.SoftDefault              F     # default value
PAO.SoftInnerRadius         0.9000000000         # default value
PAO.SoftPotential          40.00000000         # default value
PAO.SplitNorm         0.1500000000         # default value
PAO.SplitNormH         -1.000000000         # default value
%block Chemical_species_label
Number_of_species              2
%block Chemical_species_label
 1    1 H
 2    6 C
%endblock Chemical_species_label
%block PS.lmax
   C 2
%endblock PS.lmax
LDAU.ProjectorGenerationMethod         2     # default value
LDAU.EnergyShift         0.5000000000E-01 Ry     # default value
LDAU.CutoffNorm         0.9000000000         # default value
PAO.SoftDefault              F     # default value
PAO.SoftInnerRadius         0.9000000000         # default value
PAO.SoftPotential          40.00000000         # default value
LDAU.ThresholdTol         0.1000000000E-01     # default value
LDAU.PopTol         0.1000000000E-02     # default value
LDAU.PotentialShift              F     # default value
LDAU.FirstIteration              F     # default value
FilterCutoff          0.000000000     Ry     # default value
FilterTol          0.000000000     Ry     # default value
KB.Rmax          6.000000000     Bohr     # default value
PAO.EnergyShift         0.1000000000E-01         Ry
# above item originally: PAO.EnergyShift         0.1000000000E-01 Ry        
PAO.SplitTailNorm              F     # default value
PAO.FixSplitTable              F     # default value
PAO.NewSplitCode              F     # default value
PAO.Filter              F     # default value
PAO.Keep.Findp.Bug              F     # default value
PAO.Filter              F     # default value
PAO.OldStylePolorbs              T     # default value
PAO.SplitTailNorm              F     # default value
PAO.FixSplitTable              F     # default value
PAO.NewSplitCode              F     # default value
PAO.Filter              F     # default value
Vna.Filter              F     # default value
FilterCutoff          0.000000000     Ry     # default value
FilterTol          0.000000000     Ry     # default value
KB.Rmax          6.000000000     Bohr     # default value
PAO.EnergyShift         0.1000000000E-01         Ry
# above item originally: PAO.EnergyShift         0.1000000000E-01 Ry        
PAO.SplitTailNorm              F     # default value
PAO.FixSplitTable              F     # default value
PAO.NewSplitCode              F     # default value
PAO.Filter              F     # default value
PAO.Filter              F     # default value
PAO.Filter              F     # default value
PAO.Filter              F     # default value
PAO.OldStylePolorbs              T     # default value
PAO.SplitTailNorm              F     # default value
PAO.FixSplitTable              F     # default value
PAO.NewSplitCode              F     # default value
PAO.Filter              F     # default value
Vna.Filter              F     # default value
PAO.BasisType     split          # default value
Atom-Setup-Only              F     # default value
UseStructFile              F     # default value
MD.UseStructFile              F     # default value
LatticeConstant          0.000000000     Bohr     # default value
AtomicCoordinatesFormat     NotScaledCartesianAng                                                           
NumberOfAtoms             12
ZM.UnitsLength     Ang                                                                             
ZM.UnitsAngle     deg                                                                             
ZM.ForceTolLength         0.1555739508E-02    Ry/Bohr
# above item originally: ZM.ForceTolLength         0.4000000000E-01 eV/Ang    
ZM.ForceTolAngle         0.4211129172E-03     Ry/rad
# above item originally: ZM.ForceTolAngle         0.1000000000E-03 eV/deg    
ZM.MaxDisplLength         0.1889726878           Bohr
# above item originally: ZM.MaxDisplLength         0.1000000000     Ang       
ZM.MaxDisplAngle         0.3490658505            rad
# above item originally: ZM.MaxDisplAngle          20.00000000     deg       
ZM.CalcAllForces              F     # default value
%block Zmatrix
 molecule
       2 0 0 0 xm1 ym1 zm1 0 0 0
       2 1 0 0 CC 90.0 60.0 0 0 0
       2 2 1 0 CC CCC 90.0 0 0 0
       2 3 2 1 CC CCC 0.0 0 0 0
       2 4 3 2 CC CCC 0.0 0 0 0
       2 5 4 3 CC CCC 0.0 0 0 0
       1 1 2 3 CH CCH 180.0 0 0 0
       1 2 1 7 CH CCH 0.0 0 0 0
       1 3 2 8 CH CCH 0.0 0 0 0
       1 4 3 9 CH CCH 0.0 0 0 0
       1 5 4 10 CH CCH 0.0 0 0 0
       1 6 5 11 CH CCH 0.0 0 0 0
 constants
         ym1 3.68
 variables
         zm1 6.9032294
         CC 1.417
         CH 1.112
         CCH 120.0
         CCC 120.0
 constraints
         xm1 CC -1.0 3.903229
%endblock Zmatrix
MD.UseSaveXV              F     # default value
MD.UseSaveZM              F     # default value
WriteCoorInitial              T     # default value
MD.TypeOfRun     CG                                                                              
NetCharge          0.000000000         # default value
MaxBondDistance          6.000000000     Bohr     # default value
LatticeConstant          0.000000000     Bohr     # default value
Output-Structure-Only              F     # default value
WriteCoorXmol              F     # default value
#:physical? MaxWalltime              F
MaxWalltime         0.1797693135+309     # default value
#:physical? MaxWalltime.Slack              F
MaxWalltime.Slack          5.000000000         # default value
HSetupOnly              F     # default value
LongOutput              F     # default value
WriteDenchar              F     # default value
WriteMullikenPop         0     # default value
WriteHirshfeldPop              F     # default value
WriteVoronoiPop              F     # default value
PartialChargesAtEveryGeometry              F     # default value
PartialChargesAtEveryScfStep              F     # default value
MeshCutoff          120.0000000             Ry
# above item originally: MeshCutoff          120.0000000     Ry        
NetCharge          0.000000000         # default value
MinSCFIterations         0     # default value
MaxSCFIterations        50     # default value
SCFMustConverge              F     # default value
TS.MixH              T     # default value
MixHamiltonian              T     # default value
MixCharge              F     # default value
SCF.Mix     Hamiltonian     # default value
Compat-pre-v4-DM-H              F     # default value
SCF.MixAfterConvergence              F     # default value
SCF.Recompute-H-After-Scf              F     # default value
DM.NumberPulay              5
DM.NumberBroyden         0     # default value
DM.FIRE.Mixing              F     # default value
DM.MixSCF1              T     # default value
SCF.Mix.First              T     # default value
DM.PulayOnFile              F     # default value
DM.MixingWeight         0.3000000000    
DM.OccupancyTolerance         0.1000000000E-11     # default value
DM.NumberKick         0     # default value
DM.KickMixingWeight         0.5000000000         # default value
DM.RequireHarrisConvergence              F     # default value
SCF.Harris.Converge              F     # default value
DM.HarrisTolerance         0.7349806700E-05 Ry     # default value
SCF.Harris.Tolerance         0.7349806700E-05 Ry     # default value
SCF.DM.Converge              T     # default value
DM.Tolerance         0.1000000000E-03     # default value
SCF.DM.Tolerance         0.1000000000E-03     # default value
SCF.EDM.Converge              F     # default value
SCF.EDM.Tolerance         0.7349806700E-04 Ry     # default value
SCF.H.Converge              T     # default value
SCF.H.Tolerance         0.7349806700E-04 Ry     # default value
DM.RequireEnergyConvergence              F     # default value
SCF.FreeE.Converge              F     # default value
DM.EnergyTolerance         0.7349806700E-05 Ry     # default value
SCF.FreeE.Tolerance         0.7349806700E-05 Ry     # default value
MonitorForcesInSCF              F     # default value
SCF.MonitorForces              F     # default value
UseSaveData              F     # default value
DM.UseSaveDM              F     # default value
NeglNonOverlapInt              F     # default value
SolutionMethod     OMM                                                                             
OMM.Diagon         0     # default value
OMM.DiagonFirstStep         0     # default value
OMM.Eigenvalues              F     # default value
Diag.Memory          1.000000000         # default value
ElectronicTemperature         0.1900000000E-02 Ry     # default value
FixSpin              F     # default value
Spin.Fix              F     # default value
ON.MaxNumIter      1000     # default value
ON.etol         0.1000000000E-07     # default value
ON.eta          0.000000000     Ry     # default value
ON.eta_alpha          0.000000000     Ry     # default value
ON.eta_beta          0.000000000     Ry     # default value
On.RcLWF          9.500000000     Bohr     # default value
ON.UseSaveLWF              F     # default value
ON.functional     kim     # default value
ON.ChemicalPotentialUse              F     # default value
ON.ChemicalPotential              F     # default value
ON.ChemicalPotentialRc          9.500000000     Bohr     # default value
ON.ChemicalPotentialTemperature         0.5000000000E-01 Ry     # default value
ON.ChemicalPotentialOrder       100     # default value
MD.VariableCell              F     # default value
compat-pre-v4-dynamics              F     # default value
MD.TypeOfRun     CG                                                                              
MD.UseSaveCG              F     # default value
Optim.Broyden              F     # default value
MD.NumCGsteps              4
MD.MaxCGDispl         0.2000000000     Bohr     # default value
MD.MaxForceTol         0.1555740000E-02 Ry/Bohr     # default value
MD.MaxStressTol         0.6797730000E-04 Ry/Bohr**3     # default value
GeometryMustConverge              F     # default value
MD.InitialTimeStep         1     # default value
MD.FinalTimeStep         1     # default value
MD.LengthTimeStep          1.000000000     fs     # default value
MD.Quench              F     # default value
MD.FireQuench              F     # default value
MD.InitialTemperature          0.000000000     K     # default value
MD.TargetTemperature          0.000000000     K     # default value
MD.TargetPressure          0.000000000     Ry/Bohr**3     # default value
MD.NoseMass          100.0000000     Ry*fs**2     # default value
MD.ParrinelloRahmanMass          100.0000000     Ry*fs**2     # default value
MD.AnnealOption     TemperatureAndPressure     # default value
MD.TauRelax          100.0000000     fs     # default value
MD.BulkModulus         0.6797730000E-02 Ry/Bohr**3     # default value
MD.FCDispl         0.4000000000E-01 Bohr     # default value
MD.FCfirst         1     # default value
MD.FClast        12     # default value
UseSpatialDecomposition              F     # default value
UseDomainDecomposition              F     # default value
SCF.Mix.Spin     all     # default value
Mixer.Debug              F     # default value
Mixer.Debug.MPI              F     # default value
DM.NumberPulay              5
DM.NumberBroyden         0     # default value
DM.MixingWeight         0.3000000000    
DM.NumberKick         0     # default value
DM.KickMixingWeight         0.5000000000         # default value
SCF.LinearMixingAfterPulay              F     # default value
SCF.MixingWeightAfterPulay         0.3000000000         # default value
SCF.Mixer.History         5     # default value
SCF.Mixer.Weight         0.3000000000         # default value
SCF.Mixer.Kick         0     # default value
SCF.Mixer.Kick.Weight         0.5000000000         # default value
SCF.Mixer.Restart         0     # default value
SCF.Mixer.Restart.Save         1     # default value
SCF.Mixer.Method     Pulay     # default value
SCF.Mixer.Variant     original     # default value
SCF.Mixer.Linear.After        -1     # default value
SCF.Mixer.Linear.After.Weight         0.3000000000         # default value
Harris_functional              F     # default value
WriteKpoints              F     # default value
WriteForces              F     # default value
WriteDM              T     # default value
WriteDM.End.Of.Cycle              T     # default value
WriteH              F     # default value
WriteH.End.Of.Cycle              F     # default value
WriteDM.NetCDF              F     # default value
WriteDM.History.NetCDF              F     # default value
WriteDMHS.NetCDF              F     # default value
WriteDMHS.History.NetCDF              F     # default value
SCF.Read.Charge.NetCDF              F     # default value
SCF.Read.Deformation.Charge.NetCDF              F     # default value
SaveInitialChargeDensity              F     # default value
AnalyzeChargeDensityOnly              F     # default value
UseNewDiagk              F     # default value
WriteBands              F     # default value
WriteKbands              F     # default value
WriteEigenvalues              F     # default value
WriteCoorStep              F     # default value
WriteMDhistory              F     # default value
WriteMDXmol              T     # default value
Write.Graphviz     none     # default value
WriteCoorStep              F     # default value
SaveHS              F     # default value
FixAuxiliaryCell              F     # default value
NaiveAuxiliaryCell              F     # default value
ReInitialiseDM              T     # default value
DM.AllowReuse              T     # default value
DM.AllowExtrapolation              T     # default value
DM.History.Depth         1     # default value
DM.NormalizationTolerance         0.1000000000E-04     # default value
DM.NormalizeDuringSCF              T     # default value
MullikenInSCF              F     # default value
WarningMinimumAtomicDistance          1.000000000     Bohr     # default value
BornCharge              F     # default value
ChangeKgridInMD              F     # default value
Diag.ParallelOverK              F     # default value
MD.RelaxCellOnly              F     # default value
MD.RemoveIntraMolecularPressure              F     # default value
COOP.Write              F     # default value
SaveRho              F     # default value
SaveDeltaRho              F     # default value
SaveRhoXC              F     # default value
SaveElectrostaticPotential              F     # default value
SaveNeutralAtomPotential              F     # default value
SaveTotalPotential              F     # default value
SaveIonicCharge              F     # default value
SaveBaderCharge              F     # default value
SaveTotalCharge              F     # default value
Siesta2Wannier90.WriteMmn              F     # default value
Siesta2Wannier90.WriteUnk              F     # default value
Siesta2Wannier90.WriteAmn              F     # default value
Siesta2Wannier90.WriteEig              F     # default value
Siesta2Wannier90.NumberOfBandsUp         0     # default value
Siesta2Wannier90.NumberOfBandsDown         0     # default value
Siesta2Wannier90.NumberOfBands         0     # default value
DM.AllowReuse              T     # default value
DM.AllowExtrapolation              T     # default value
DM.AllowExtrapolation              F     # default value
RcSpatial          0.000000000     Bohr     # default value
ProcessorGridX         1     # default value
ProcessorGridY         1     # default value
ProcessorGridZ         1     # default value
NumberOfEigenStates       108     # default value
TimeReversalSymmetryForKpoints              T     # default value
kgrid_cutoff          0.000000000     Bohr     # default value
LongOutput              F     # default value
WriteWaveFunctions              F     # default value
ForceAuxCell              F     # default value
AtomicCoordinatesFormat     NotScaledCartesianAng                                                           
AtomCoorFormatOut     NotScaledCartesianAng      # default value
LatticeConstant          0.000000000     Bohr     # default value
Sonly              F     # default value
Sonly              F     # default value
Debug.DHSCF              F     # default value
MeshSubDivisions         2     # default value
DirectPhi              F     # default value
SimulateDoping              F     # default value
Read-H-from-file              F     # default value
OMM.LongOutput              F     # default value
OMM.UseCholesky              F
OMM.UseSparse              F     # default value
OMM.WriteCoeffs              F     # default value
OMM.ReadCoeffs              F     # default value
OMM.Precon        -1     # default value
OMM.PreconFirstStep        -1     # default value
OMM.TPreconScale          10.00000000     Ry     # default value
OMM.RelTol         0.1000000000E-08     # default value
