   220
Energy=    -453.136825297668    
N         -4.805388985        -4.110988817         7.116586564    
H1        -5.037475423        -4.547391766         6.232260116    
H2        -5.199253777        -3.181824320         7.125933947    
H3        -5.225561589        -4.648531261         7.861223567    
CA        -3.332442482        -4.057485156         7.306211678    
HA        -3.125582116        -3.508526753         8.226196671    
CB        -2.743846559        -5.466639131         7.461576353    
HB        -2.886861530        -6.035122783         6.540100730    
HB        -1.674415941        -5.396296848         7.669550582    
OG        -3.387091180        -6.135604679         8.535975698    
HG        -2.960438013        -7.001334497         8.649007651    
C         -2.634399088        -3.330479239         6.156339039    
O         -3.145697183        -3.299985695         5.036824791    
N         -1.450281320        -2.758958047         6.401097545    
H         -1.072509141        -2.794710782         7.339425065    
CA       -0.5870461257        -2.191638864         5.351731731    
HA        -1.214569624        -1.696169640         4.608386335    
CB        0.3388419707        -1.122744255         5.949295047    
HB        0.8442867150        -1.528139964         6.827556323    
HB         1.109218164       -0.8817213075         5.216662788    
CG       -0.3399018785        0.1632035038         6.308874655    
CD       -0.6833951316        0.5630104197         7.554716773    
HD       -0.5048464792       -0.5345922169E-02     8.463405604    
NE        -1.306496097         1.796108802         7.490700812    
HE        -1.654820260         2.287210811         8.308364393    
CE        -1.391639194         2.256286196         6.193045618    
CZ        -1.926028446         3.419392562         5.618300177    
HZ        -2.393993234         4.169740457         6.241421990    
CH        -1.839362933         3.597236043         4.226257958    
HH        -2.243267908         4.491646857         3.766426714    
CZ        -1.218421211         2.616220445         3.431135875    
HZ        -1.143373168         2.765064936         2.360874044    
CE       -0.6909964013         1.448656090         4.018483130    
HE       -0.2117610471        0.7029178376         3.400849403    
CD       -0.7688063618         1.235722856         5.412897733    
C         0.2167756378        -3.278155574         4.617150275    
O         0.6436554014        -4.268751822         5.216523393    
N         0.4372889747        -3.073208125         3.315580217    
H         0.2917416592E-01    -2.246913259         2.892081388    
CA         1.182808941        -3.972027308         2.412076514    
HA         1.791779538        -4.654563360         3.006799058    
CB        0.2334532798        -4.825076777         1.544867345    
HB        0.8383765053        -5.498085382        0.9360345227    
CG       -0.7290094944        -5.676754433         2.374121492    
HG        -1.442232192        -5.045274062         2.905123720    
HG        -1.273547332        -6.354079566         1.716657922    
HG       -0.1653597088        -6.270292837         3.094391909    
OG       -0.5533490537        -4.030950448        0.6803595344    
HG       -0.8957413896        -3.280203860         1.194989097    
C          2.131058919        -3.176837996         1.507962205    
O          1.814889889        -2.046577901         1.131977036    
N          3.283521212        -3.751669424         1.154074365    
H          3.478826480        -4.682681722         1.494662188    
CA         4.266262675        -3.148567493        0.2406453945    
HA         4.096924613        -2.072469025        0.1805064501    
CB         5.676856852        -3.358484736        0.8056081860    
HB         5.755336623        -2.814879797         1.746922620    
HB         5.809638387        -4.418581112         1.028544027    
CG         6.806871154        -2.919993430       -0.7760246138E-01
CD         7.692521946        -3.746903398       -0.6789445489    
HD         7.692703860        -4.830163769       -0.5888330737    
NE         8.610208176        -3.006174021        -1.397758739    
HE         9.389345074        -3.422153096        -1.899439996    
CE         8.348937614        -1.655284700        -1.313302329    
CZ         8.973981533       -0.5244056693        -1.859315427    
HZ         9.842382680       -0.6339483147        -2.495099715    
CH         8.461935195        0.7496684632        -1.561292934    
HH         8.935811194         1.635663809        -1.967156652    
CZ         7.335303193        0.8728024342       -0.7281480316    
HZ         6.949855805         1.857022927       -0.4933254284    
CE         6.711661654       -0.2712885364       -0.1917906854    
HE         5.850643657       -0.1623616780        0.4519207173    
CD         7.202138264        -1.566091140       -0.4660256978    
C          4.127312510        -3.722381832        -1.177356990    
O          3.994862569        -4.937432289        -1.348207591    
N          4.166449402        -2.856764059        -2.194579209    
H          4.212832265        -1.866810521        -1.968519161    
CA         3.929029205        -3.220752346        -3.606072734    
HA         3.803718926        -4.302606500        -3.671675013    
CB         2.606756019        -2.600061020        -4.099486498    
HB         2.685875626        -1.511789202        -4.093399424    
HB         2.428090748        -2.929540622        -5.123804401    
CG         1.402688735        -3.029816846        -3.248095466    
HG         1.429214625        -2.511850734        -2.286038939    
HG         1.469264916        -4.103238082        -3.053154366    
CD        0.7682252545E-01    -2.724560925        -3.963316350    
OE       -0.3102336269        -1.534551542        -4.052891985    
OE       -0.6055463478        -3.682784393        -4.404153018    
C          5.124662698        -2.914952047        -4.536730029    
O          4.959064652        -2.743288044        -5.747198045    
N          6.342108595        -2.829293941        -3.982684036    
H          6.420263080        -3.001988366        -2.987949139    
CA         7.586747885        -2.602405235        -4.740337587    
HA         8.434372986        -2.892074084        -4.121317799    
HA         7.586487708        -3.244383238        -5.621918566    
C          7.820541200        -1.156589158        -5.209414465    
O          8.795969864       -0.8916769712        -5.916948530    
N          6.938721608       -0.2254650230        -4.828032988    
H          6.203725413       -0.5392567411        -4.215473519    
CA         7.003059292         1.201075019        -5.176338297    
HA         8.049191684         1.500936384        -5.271048667    
CB         6.303622316         1.390711948        -6.536684095    
HB         6.789995905        0.7663209743        -7.286722602    
HB         5.261269056         1.078024885        -6.463837684    
CG         6.342429739         2.834799878        -7.011269356    
OD         5.384987258         3.584951864        -6.874889960    
ND         7.448513748         3.276350975        -7.569526241    
HD         7.481377269         4.234915716        -7.885446898    
HD         8.238121152         2.659258994        -7.693927515    
C          6.367749760         2.100696038        -4.095092896    
O          6.924953082         3.150875546        -3.762258913    
N          5.226086911         1.676151388        -3.529803565    
H          4.823019409        0.8178318545        -3.875723956    
CA         4.510814547         2.350071780        -2.431149997    
HA         5.230369664         2.942695936        -1.862331195    
CB         3.464852936         3.324605580        -3.013897772    
HB         3.120843312         3.984494685        -2.215433227    
HB         3.947652447         3.949438591        -3.767825395    
CG         2.236628855         2.637498774        -3.639043848    
HG         2.557573723         1.948016839        -4.421138573    
HG         1.704981818         2.077147990        -2.870207615    
CD         1.290869406         3.683484075        -4.248007869    
HD         1.048045959         4.445324116        -3.504551587    
HD         1.806591315         4.172725277        -5.076434096    
CE       -0.6667972707E-02     3.063963773        -4.787165269    
HE        0.2407148152         2.197323524        -5.407943805    
HE       -0.4917955101         3.803764678        -5.431452357    
NZ       -0.9463456037         2.674046019        -3.700279748    
HZ        -1.161345250         3.459447577        -3.100184650    
HZ       -0.5743320006         1.924500915        -3.120979507    
HZ        -1.819620058         2.339809936        -4.087006659    
C          3.883905781         1.357340476        -1.442560281    
O          3.774634228        0.1617975222        -1.729705874    
N          3.433569073         1.879058400       -0.3004994185    
H          3.566737028         2.868845198       -0.1557972444    
CA         2.577962351         1.165725861        0.6532699417    
HA         2.801685381        0.1020016213        0.5885743369    
CB         2.896980980         1.608484738         2.087266753    
HB         2.821477679         2.695064192         2.155349851    
HB         2.141669848         1.189733590         2.752862271    
CG         4.236893792         1.172236560         2.599857378    
CD         5.393261867         1.865324197         2.488978894    
HD         5.492957677         2.838662853         2.016901238    
NE         6.424375789         1.144133709         3.062675540    
HE         7.385423337         1.470092375         3.086542730    
CE         5.980839197       -0.5622825922E-01     3.576819428    
CZ         6.621768818        -1.112512858         4.242582676    
HZ         7.686159300        -1.071789987         4.430836643    
CH         5.862084899        -2.218921033         4.662567573    
HH         6.340903101        -3.042657659         5.178917103    
CZ         4.477832738        -2.255265241         4.410657382    
HZ         3.895820469        -3.109018492         4.736627259    
CE         3.846399044        -1.189321662         3.739199284    
HE         2.783482852        -1.224363721         3.550687069    
CD         4.579371113       -0.6312043963E-01     3.303783874    
C          1.086566098         1.348624719        0.3209264623    
O         0.6551221168         2.434785226       -0.7862737876E-01
N         0.3003150643        0.2875361681        0.5239122211    
H         0.7463271938       -0.5680000512        0.8428621478    
CA        -1.139810588        0.2104992607        0.2173235612    
HA        -1.555533070         1.216018204        0.1454921677    
CB        -1.352230525       -0.4975219893        -1.135402599    
HB       -0.9173885276        -1.496827132        -1.086468923    
CG        -2.821374128       -0.6163217819        -1.543279622    
HG        -3.295958342        0.3655821016        -1.529520434    
HG        -2.891145795        -1.034935868        -2.547962425    
HG        -3.349201849        -1.282601074       -0.8614481040    
OG       -0.7154782213        0.2183671280        -2.172173844    
HG       -0.5784968227       -0.4390626167        -2.898688926    
C         -1.879941387       -0.5437458711         1.326085057    
O         -1.443619607        -1.618250011         1.744343004    
N         -3.006925181       -0.7262157860E-02     1.800052913    
H         -3.317437083        0.8772493870         1.422293010    
CA        -3.867270284       -0.6584485482         2.797203932    
HA        -3.239325459        -1.177411278         3.521914644    
CB        -4.661405399        0.4090900299         3.559818059    
HB        -3.956009793         1.081817328         4.050022510    
HB        -5.235065068         1.001363599         2.844761503    
CG        -5.603979097       -0.1170924177         4.600593684    
CD        -6.914333598       -0.3924787624         4.405627335    
HD        -7.444013039       -0.2644940424         3.464934987    
NE        -7.474730078       -0.8527606596         5.582115319    
HE        -8.454213720        -1.108179961         5.669927112    
CE        -6.549767363       -0.8896795183         6.603102443    
CZ        -6.625755447        -1.264692713         7.953304525    
HZ        -7.566485163        -1.595623877         8.374794934    
CH        -5.472041802        -1.185516092         8.753172303    
HH        -5.517055743        -1.454505485         9.802715739    
CZ        -4.259946016       -0.7465152257         8.189378782    
HZ        -3.373725815       -0.6761293078         8.809635554    
CE        -4.195116799       -0.3792360971         6.830370437    
HE        -3.261608836       -0.3384964172E-01     6.409139299    
CD        -5.336956967       -0.4340564568         6.002346947    
C         -4.796078616        -1.694758054         2.141894506    
O         -5.456121900        -1.395387418         1.140551098    
N         -4.856678198        -2.907555129         2.710320762    
H         -4.290758809        -3.063815051         3.539929686    
CA        -5.659297151        -4.047326117         2.219969746    
HA        -6.453399322        -3.671082425         1.571153568    
CB        -4.776606896        -5.003297763         1.388674673    
HB        -5.392700506        -5.835033480         1.041957046    
HB        -3.982039525        -5.406591083         2.019405539    
CG        -4.148665254        -4.318887130        0.1630952331    
HG        -3.415630280        -3.584626472        0.4989729664    
HG        -4.929000629        -3.805443460       -0.4007106450    
CD        -3.452770304        -5.323049995       -0.7636524232    
HD        -4.195508138        -6.004621741        -1.182767074    
HD        -2.717156493        -5.896209277       -0.1976109020    
CE        -2.749874170        -4.558636976        -1.891433465    
HE        -3.484289718        -3.931830898        -2.406701749    
HE        -1.997301981        -3.900188579        -1.446648042    
NZ        -2.100179678        -5.472620251        -2.864966818    
HZ        -1.431253857        -6.080977322        -2.413350798    
HZ        -2.778850271        -6.047032097        -3.346188919    
HZ        -1.595769539        -4.928308364        -3.568569256    
C         -6.354804605        -4.799082767         3.364023378    
O         -5.919318595        -4.762613770         4.515987364    
N         -7.432684989        -5.504904078         3.062556943    
HN        -7.767528139        -5.529585256         2.112695943    
HN        -7.904222631        -6.013009072         3.793453579    
   220
Energy=    -452.432866810131    
N         -4.750223176        -4.237573138         7.191277991    
H1        -4.993126110        -4.647602376         6.297277031    
H2        -5.142852875        -3.308773858         7.232768449    
H3        -5.162180385        -4.796539010         7.924644936    
CA        -3.275049408        -4.190951804         7.364939570    
HA        -3.056604610        -3.669808983         8.298324397    
CB        -2.686326272        -5.604601438         7.471196601    
HB        -2.841085912        -6.145270605         6.534995180    
HB        -1.614388834        -5.541385559         7.668266302    
OG        -3.317394275        -6.304728455         8.532889582    
HG        -2.890484986        -7.173817639         8.614904346    
C         -2.589936635        -3.430638188         6.228925537    
O         -3.115057445        -3.365925846         5.117292415    
N         -1.401929267        -2.868223716         6.475920564    
H         -1.012584289        -2.932587918         7.407970106    
CA       -0.5511107232        -2.271272472         5.432868236    
HA        -1.187097499        -1.748557893         4.715777625    
CB        0.3896332215        -1.227209117         6.050667455    
HB        0.9012529363        -1.661209147         6.911504355    
HB         1.154026539       -0.9708599640         5.316921212    
CG       -0.2765884177        0.5230287943E-01     6.453729534    
CD       -0.6045409506        0.4188717796         7.713900215    
HD       -0.4189697596       -0.1753909531         8.604427633    
NE        -1.222152679         1.656174087         7.691025997    
HE        -1.559129737         2.125944890         8.525799315    
CE        -1.320254002         2.152043999         6.407497100    
CZ        -1.856525759         3.332445284         5.871040186    
HZ        -2.314858823         4.066858665         6.519778643    
CH        -1.784380451         3.548459118         4.483577094    
HH        -2.189928273         4.456639755         4.053119663    
CZ        -1.175818736         2.587703803         3.654854451    
HZ        -1.111889722         2.765861667         2.588355443    
CE       -0.6463902122         1.402521326         4.203860996    
HE       -0.1767102479        0.6725251325         3.560611607    
CD       -0.7097859000         1.151335289         5.592627930    
C         0.2347536504        -3.337227842         4.650564155    
O         0.6642273905        -4.349884060         5.209880777    
N         0.4355909027        -3.090825901         3.353003102    
H         0.2656013302E-01    -2.248314727         2.963720541    
CA         1.153405677        -3.967818092         2.407022751    
HA         1.764522367        -4.676327267         2.968213783    
CB        0.1787362544        -4.781874495         1.530449483    
HB        0.7646120859        -5.442049859        0.8898025611    
CG       -0.7800427620        -5.648102932         2.348715422    
HG        -1.474880663        -5.025475950         2.913463813    
HG        -1.345616827        -6.295899827         1.679308315    
HG       -0.2115632695        -6.272569205         3.038386547    
OG       -0.6127184256        -3.951091755        0.7059290000    
HG       -0.9472408408        -3.220776799         1.254280259    
C          2.095286218        -3.155755790         1.511379358    
O          1.788735234        -2.010511356         1.174842193    
N          3.232911446        -3.735625851         1.119720494    
H          3.420859982        -4.679003709         1.428980379    
CA         4.215673906        -3.117921554        0.2165827063    
HA         4.054756575        -2.039368878        0.1832561280    
CB         5.625826690        -3.354648574        0.7719762448    
HB         5.710829042        -2.834563302         1.725713508    
HB         5.747423123        -4.420920664        0.9706163036    
CG         6.762733439        -2.908660068       -0.9890405862E-01
CD         7.663017930        -3.730313714       -0.6855409557    
HD         7.666814956        -4.813708099       -0.5971365932    
NE         8.589868567        -2.984000361        -1.386601683    
HE         9.379884018        -3.395404449        -1.874863133    
CE         8.324827487        -1.634213694        -1.298914380    
CZ         8.958797075       -0.4991127674        -1.825531920    
HZ         9.842135263       -0.6032818313        -2.441327547    
CH         8.435849527        0.7720986882        -1.534291383    
HH         8.916211777         1.661260520        -1.925334754    
CZ         7.289706161        0.8882266172       -0.7271595716    
HZ         6.895727521         1.870247899       -0.4973414797    
CE         6.657406174       -0.2600412088       -0.2102167816    
HE         5.781266219       -0.1564981597        0.4136734620    
CD         7.158301878        -1.552147816       -0.4782651721    
C          4.067136397        -3.657143810        -1.213568722    
O          3.938389896        -4.867935397        -1.414786515    
N          4.095724180        -2.765452935        -2.208373723    
H          4.139695119        -1.781465180        -1.957182204    
CA         3.853496194        -3.091938656        -3.627809915    
HA         3.699703186        -4.168410335        -3.717522374    
CB         2.548746233        -2.426076260        -4.110205233    
HB         2.655907667        -1.340637385        -4.079198115    
HB         2.363063090        -2.727805153        -5.141786742    
CG         1.334039016        -2.844681557        -3.267615073    
HG         1.384329468        -2.364545596        -2.287141131    
HG         1.364632188        -3.926251088        -3.112925834    
CD        0.1312364448E-01    -2.466165232        -3.955796298    
OE       -0.3231634244        -1.258089037        -4.008094369    
OE       -0.7209039388        -3.383181169        -4.400147870    
C          5.063259560        -2.797090679        -4.543689057    
O          4.910535509        -2.578590610        -5.748287391    
N          6.279473155        -2.769892439        -3.981049269    
H          6.346064421        -2.979171108        -2.992516494    
CA         7.537403785        -2.554851145        -4.720338608    
HA         8.369339744        -2.900853663        -4.108907936    
HA         7.521389810        -3.158247774        -5.628607350    
C          7.824999845        -1.099484803        -5.126352277    
O          8.830706308       -0.8342742172        -5.790025279    
N          6.953794786       -0.1603343548        -4.740284975    
H          6.190392906       -0.4771516687        -4.165169237    
CA         7.060059112         1.275670050        -5.037522219    
HA         8.114099010         1.561644463        -5.058466278    
CB         6.445399835         1.514394791        -6.431238121    
HB         6.965830882        0.9032967122        -7.169203353    
HB         5.396259302         1.216080069        -6.427825386    
CG         6.531503568         2.969381163        -6.864768980    
OD         5.572724045         3.725645201        -6.781218361    
ND         7.678879420         3.412253846        -7.331234547    
HD         7.743074016         4.377756396        -7.619967501    
HD         8.469899628         2.789989926        -7.413411555    
C          6.367076997         2.156195200        -3.974643330    
O          6.878164068         3.226446159        -3.631884094    
N          5.220500815         1.699189803        -3.445782882    
H          4.857662107        0.8255944369        -3.797941879    
CA         4.413450229         2.379827815        -2.416853414    
HA         5.065996596         3.043327785        -1.845087071    
CB         3.341075869         3.254496760        -3.100949769    
HB         2.840015827         3.859076245        -2.342802008    
HB         3.840117534         3.938823186        -3.789766509    
CG         2.277205377         2.453197697        -3.874764037    
HG         2.764123201         1.816920095        -4.614963661    
HG         1.721107765         1.824353619        -3.179058623    
CD         1.304739605         3.397249449        -4.598601028    
HD        0.8015115413         4.041258041        -3.874691546    
HD         1.878386037         4.032085006        -5.276540701    
CE        0.2621515717         2.635532788        -5.430599327    
HE        0.7779619885         1.902150970        -6.058159765    
HE       -0.2327709195         3.349064832        -6.096752520    
NZ       -0.7605777885         1.962231278        -4.585859849    
HZ        -1.281941499         2.631980136        -4.035146115    
HZ       -0.3420239059         1.294940126        -3.948878862    
HZ        -1.423306494         1.455561014        -5.159148019    
C          3.796060067         1.399637142        -1.410049245    
O          3.699793070        0.1983397963        -1.677131946    
N          3.347862620         1.933998002       -0.2730033894    
H          3.469549509         2.927585867       -0.1452309942    
CA         2.533633347         1.220666200        0.7178100436    
HA         2.749280841        0.1559292911        0.6425777548    
CB         2.913898795         1.660103943         2.137789493    
HB         2.866802487         2.748364729         2.204398454    
HB         2.171542050         1.262616731         2.830704876    
CG         4.258129078         1.192491770         2.608525887    
CD         5.424513515         1.864413639         2.474660349    
HD         5.531304496         2.839488591         2.007745761    
NE         6.455291822         1.119173955         3.017388067    
HE         7.422700603         1.426653119         3.020198747    
CE         6.001172493       -0.7612402665E-01     3.534375884    
CZ         6.637384569        -1.148713645         4.178234829    
HZ         7.706397397        -1.129038514         4.342092906    
CH         5.867010017        -2.243744657         4.608439608    
HH         6.342093161        -3.079787487         5.108193678    
CZ         4.476894158        -2.252670012         4.388367060    
HZ         3.886674167        -3.097735028         4.722125559    
CE         3.850223443        -1.170559713         3.738658421    
HE         2.782784505        -1.184580676         3.574545167    
CD         4.593913050       -0.5513704293E-01     3.293774321    
C          1.030211590         1.410942485        0.4554698870    
O         0.5829109747         2.509610153        0.1114010842    
N         0.2524763005        0.3432830086        0.6568001669    
H         0.7110619107       -0.5221930874        0.9274447000    
CA        -1.194659637        0.2710144462        0.3816169811    
HA        -1.611865288         1.277233113        0.3323153423    
CB        -1.436284110       -0.4179128999       -0.9760172985    
HB        -1.013798735        -1.423389399       -0.9449612821    
CG        -2.912094590       -0.5134444542        -1.366205552    
HG        -3.371104825        0.4757602937        -1.342256920    
HG        -3.000972684       -0.9263123128        -2.371813415    
HG        -3.441778557        -1.173727287       -0.6802332018    
OG       -0.8024896310        0.3007983922        -2.011276749    
HG       -0.6550255943       -0.3496187336        -2.740083466    
C         -1.913609742       -0.5007497811         1.491103079    
O         -1.474357823        -1.586450423         1.876054272    
N         -3.029272954        0.2897751669E-01     1.998288808    
H         -3.342824042        0.9232945227         1.647057165    
CA        -3.877265999       -0.6478410818         2.988635191    
HA        -3.240861319        -1.191075590         3.687744954    
CB        -4.654801509        0.3991579661         3.795287470    
HB        -3.938995323         1.055884967         4.292129778    
HB        -5.239695569         1.013017721         3.108082359    
CG        -5.579193763       -0.1561119126         4.837112851    
CD        -6.894439435       -0.4198202456         4.659728606    
HD        -7.442289704       -0.2589215967         3.734626341    
NE        -7.433223011       -0.9163239169         5.831575003    
HE        -8.411904919        -1.170662020         5.930731382    
CE        -6.487861850       -0.9913900897         6.831606303    
CZ        -6.538085470        -1.411625076         8.169640268    
HZ        -7.471561508        -1.752942174         8.598903735    
CH        -5.367976511        -1.364127849         8.947908610    
HH        -5.392862073        -1.668337559         9.988466218    
CZ        -4.165590226       -0.9110505691         8.374541981    
HZ        -3.266612893       -0.8652024991         8.978525917    
CE        -4.126738050       -0.4982029468         7.027676057    
HE        -3.200410070       -0.1424193465         6.599308114    
CD        -5.285436572       -0.5204509884         6.221853558    
C         -4.819787310        -1.659718626         2.314715686    
O         -5.504729435        -1.321544908         1.342881669    
N         -4.862057538        -2.895735091         2.832532245    
H         -4.275873087        -3.084132656         3.641127961    
CA        -5.670372686        -4.018057262         2.311749804    
HA        -6.478508302        -3.618870371         1.694748889    
CB        -4.801589028        -4.935621476         1.424062395    
HB        -5.422660658        -5.753360781         1.053761566    
HB        -3.995055511        -5.363594028         2.022397963    
CG        -4.197075618        -4.198856043        0.2170535039    
HG        -3.458447947        -3.478775347        0.5706804975    
HG        -4.988086210        -3.662481815       -0.3092677673    
CD        -3.518052762        -5.161013007       -0.7656182367    
HD        -4.268680592        -5.823525302        -1.200933148    
HD        -2.773067819        -5.758757599       -0.2384943048    
CE        -2.834142417        -4.348232935        -1.871486217    
HE        -3.576483675        -3.697294205        -2.343801293    
HE        -2.071155002        -3.712483884        -1.411665078    
NZ        -2.205777924        -5.218614259        -2.897938292    
HZ        -1.530530983        -5.848607426        -2.487096272    
HZ        -2.895422534        -5.769567868        -3.390967902    
HZ        -1.713050462        -4.645515790        -3.586908494    
C         -6.341039649        -4.818697266         3.437420350    
O         -5.887070643        -4.822484410         4.582829357    
N         -7.418693295        -5.520907920         3.126832061    
HN        -7.769086184        -5.511943638         2.182317227    
HN        -7.874333415        -6.060218311         3.845348578    
   220
Energy=    -454.473009584741    
N         -4.729590323        -4.385999319         7.186241394    
H1        -4.956133018        -4.784541844         6.282780718    
H2        -5.143211642        -3.467140486         7.241576065    
H3        -5.134849447        -4.967379807         7.905792706    
CA        -3.257201837        -4.309783147         7.373309018    