
                           ***********************       
                           *  WELCOME TO SIESTA  *       
                           ***********************       

reinit: Reading from ../32_h2o.fdf

reinit: -----------------------------------------------------------------------
reinit: System Name: Heavy liquid water, 32 molecules
reinit: -----------------------------------------------------------------------
reinit: System Label: 32_h2o
reinit: -----------------------------------------------------------------------
Siesta Version: siesta-4.1--736
Architecture  : unknown
Compiler flags: gfortran -O2 -fPIC -ftree-vectorize -pg -no-pie
PP flags      : -DFC_HAVE_ABORT
Libraries     : 
SERIAL version

* Running in serial mode
>> Start of run:  12-JAN-2018  10:27:26

initatom: Reading input for the pseudopotentials and atomic orbitals ----------
Species number:   1 Atomic number:    8 Label: O_lyp
Species number:   2 Atomic number:    1 Label: H_lyp

Ground state valence configuration:   2s02  2p04
Reading pseudopotential information in formatted form from O_lyp.psf

Valence configuration for pseudopotential generation:
2s( 2.00) rc: 1.14
2p( 4.00) rc: 1.14
3d( 0.00) rc: 1.14
4f( 0.00) rc: 1.14
Ground state valence configuration:   1s01
Reading pseudopotential information in formatted form from H_lyp.psf

Valence configuration for pseudopotential generation:
1s( 1.00) rc: 1.25
2p( 0.00) rc: 1.25
3d( 0.00) rc: 1.25
4f( 0.00) rc: 1.25
remass: Read atomic mass for species    2 as      2.00000
For O_lyp, standard SIESTA heuristics set lmxkb to 2
 (one more than the basis l, including polarization orbitals).
Use PS.lmax or PS.KBprojectors blocks to override.
For H_lyp, standard SIESTA heuristics set lmxkb to 1
 (one more than the basis l, including polarization orbitals).
Use PS.lmax or PS.KBprojectors blocks to override.

<basis_specs>
===============================================================================
O_lyp                Z=   8    Mass=  16.000        Charge=-0.24233    
Lmxo=1 Lmxkb= 2    BasisType=split      Semic=F
L=0  Nsemic=0  Cnfigmx=2
          n=1  nzeta=1  polorb=0
            splnorm:   0.15000    
               vcte:    23.361    
               rinn:    3.3972    
               qcoe:    0.0000    
               qyuk:    0.0000    
               qwid:   0.10000E-01
                rcs:    4.5077    
            lambdas:    1.0000    
L=1  Nsemic=0  Cnfigmx=2
          n=1  nzeta=1  polorb=0
            splnorm:   0.15000    
               vcte:    2.7833    
               rinn:    5.1425    
               qcoe:    0.0000    
               qyuk:    0.0000    
               qwid:   0.10000E-01
                rcs:    6.1500    
            lambdas:    1.0000    
-------------------------------------------------------------------------------
L=0  Nkbl=1  erefs: 0.17977+309
L=1  Nkbl=1  erefs: 0.17977+309
L=2  Nkbl=1  erefs: 0.17977+309
===============================================================================
</basis_specs>

atom: Called for O_lyp                 (Z =   8)

read_vps: Pseudopotential generation method:
read_vps: ATM3      Troullier-Martins                       
Total valence charge:    6.00000

read_vps: Pseudopotential includes a core correction:
read_vps: Pseudo-core for xc-correction

xc_check: Exchange-correlation functional:
xc_check: GGA Becke Lee Yang Parr
V l=0 = -2*Zval/r beyond r=  1.1278
V l=1 = -2*Zval/r beyond r=  1.1278
V l=2 = -2*Zval/r beyond r=  1.1278
All V_l potentials equal beyond r=  1.1278
This should be close to max(r_c) in ps generation
All pots = -2*Zval/r beyond r=  1.1278

VLOCAL1: 99.0% of the norm of Vloc inside     34.126 Ry
VLOCAL1: 99.9% of the norm of Vloc inside     77.774 Ry
atom: Maximum radius for 4*pi*r*r*local-pseudopot. charge    1.37759
atom: Maximum radius for r*vlocal+2*Zval:    1.18566
GHOST: No ghost state for L =  0
GHOST: No ghost state for L =  1
GHOST: No ghost state for L =  2

KBgen: Kleinman-Bylander projectors: 
   l= 0   rc=  1.262145   el= -1.745958   Ekb=  9.224384   kbcos=  0.329611
   l= 1   rc=  1.262145   el= -0.661632   Ekb= -7.951208   kbcos= -0.394018
   l= 2   rc=  1.343567   el=  0.001587   Ekb= -1.921621   kbcos= -0.003500

KBgen: Total number of  Kleinman-Bylander projectors:    9
atom: -------------------------------------------------------------------------

atom: SANKEY-TYPE ORBITALS:

atom: basis set generated (by rescaling the valence charge)
atom: for an anion of charge  -0.2423

SPLIT: Orbitals with angular momentum L= 0

SPLIT: Basis orbitals for state 2s

   izeta = 1
                 lambda =    1.000000
                     rc =    4.574469
                 energy =   -1.742869
                kinetic =    1.486567
    potential(screened) =   -3.229436
       potential(ionic) =  -11.047338

SPLIT: Orbitals with angular momentum L= 1

SPLIT: Basis orbitals for state 2p

   izeta = 1
                 lambda =    1.000000
                     rc =    6.174996
                 energy =   -0.654632
                kinetic =    4.291881
    potential(screened) =   -4.946513
       potential(ionic) =  -12.289299
atom: Total number of Sankey-type orbitals:  4

atm_pop: Valence configuration (for local Pseudopot. screening):
 2s( 2.00)                                                            
 2p( 4.00)                                                            
Vna: chval, zval:    6.00000   6.00000

Vna:  Cut-off radius for the neutral-atom potential:   6.174996
comcore: Pseudo-core radius Rcore=  1.377587

atom: _________________________________________________________________________

<basis_specs>
===============================================================================
H_lyp                Z=   1    Mass=  2.0000        Charge= 0.46527    
Lmxo=0 Lmxkb= 1    BasisType=split      Semic=F
L=0  Nsemic=0  Cnfigmx=1
          n=1  nzeta=1  polorb=0
            splnorm:   0.15000    
               vcte:    99.931    
               rinn:    2.5993    
               qcoe:    0.0000    
               qyuk:    0.0000    
               qwid:   0.10000E-01
                rcs:    4.2036    
            lambdas:    1.0000    
-------------------------------------------------------------------------------
L=0  Nkbl=1  erefs: 0.17977+309
L=1  Nkbl=1  erefs: 0.17977+309
===============================================================================
</basis_specs>

atom: Called for H_lyp                 (Z =   1)

read_vps: Pseudopotential generation method:
read_vps: ATM3      Troullier-Martins                       
Total valence charge:    1.00000

xc_check: Exchange-correlation functional:
xc_check: GGA Becke Lee Yang Parr
V l=0 = -2*Zval/r beyond r=  1.2343
V l=1 = -2*Zval/r beyond r=  1.2189
All V_l potentials equal beyond r=  1.2343
This should be close to max(r_c) in ps generation
All pots = -2*Zval/r beyond r=  1.2343

VLOCAL1: 99.0% of the norm of Vloc inside     28.493 Ry
VLOCAL1: 99.9% of the norm of Vloc inside     64.935 Ry
atom: Maximum radius for 4*pi*r*r*local-pseudopot. charge    1.45251
atom: Maximum radius for r*vlocal+2*Zval:    1.21892
GHOST: No ghost state for L =  0
GHOST: No ghost state for L =  1

KBgen: Kleinman-Bylander projectors: 
   l= 0   rc=  1.364359   el= -0.482584   Ekb= -2.022767   kbcos= -0.348839
   l= 1   rc=  1.434438   el=  0.000637   Ekb= -0.492969   kbcos= -0.021451

KBgen: Total number of  Kleinman-Bylander projectors:    4
atom: -------------------------------------------------------------------------

atom: SANKEY-TYPE ORBITALS:

atom: basis set generated (by rescaling the valence charge)
atom: for a cation of charge   0.4653

SPLIT: Orbitals with angular momentum L= 0

SPLIT: Basis orbitals for state 1s

   izeta = 1
                 lambda =    1.000000
                     rc =    4.260636
                 energy =   -0.876287
                kinetic =    1.366135
    potential(screened) =   -2.242422
       potential(ionic) =   -2.296941
atom: Total number of Sankey-type orbitals:  1

atm_pop: Valence configuration (for local Pseudopot. screening):
 1s( 1.00)                                                            
Vna: chval, zval:    1.00000   1.00000

Vna:  Cut-off radius for the neutral-atom potential:   4.260636

atom: _________________________________________________________________________

prinput: Basis input ----------------------------------------------------------

PAO.BasisType split     

%block ChemicalSpeciesLabel
    1    8 O_lyp                   # Species index, atomic number, species label
    2    1 H_lyp                   # Species index, atomic number, species label
%endblock ChemicalSpeciesLabel

%block PAO.Basis                 # Define Basis set
O_lyp                 2  -0.242            # Label, l-shells, ionic net charge
 n=2   0   1                         # n, l, Nzeta 
   4.574   
   1.000   
 n=2   1   1                         # n, l, Nzeta 
   6.175   
   1.000   
H_lyp                 1   0.465            # Label, l-shells, ionic net charge
 n=1   0   1                         # n, l, Nzeta 
   4.261   
   1.000   
%endblock PAO.Basis

prinput: ----------------------------------------------------------------------

coor:   Atomic-coordinates input format  =     Cartesian coordinates
coor:                                          (in Angstroms)

siesta: Atomic coordinates (Bohr) and species
siesta:      0.35905   6.95419  12.22653  1        1
siesta:     -1.19053   7.76678  12.96353  2        2
siesta:     -0.17008   5.57469  11.03600  2        3
siesta:      2.81569  13.28478  13.54934  1        4
siesta:      3.89284  14.75877  13.07691  2        5
siesta:      1.68186  13.77611  14.98553  2        6
siesta:     12.94463   0.49133  12.56668  1        7
siesta:     14.24854   0.18897  13.88949  2        8
siesta:     11.56513   1.56847  13.28478  2        9
siesta:     11.45174  18.21697   2.32436  1       10
siesta:     11.58403  19.80434   1.30391  2       11
siesta:     12.32102  18.46263   3.98732  2       12
siesta:     11.30057  13.77611   5.10226  1       13
siesta:     11.75410  15.08002   3.81725  2       14
siesta:      9.82658  14.39972   6.12272  2       15
siesta:      0.09449   7.74788   4.83770  1       16
siesta:     -1.36060   8.39039   5.85815  2       17
siesta:     -0.54802   6.78412   3.34482  2       18
siesta:      1.03935  13.24699   8.10693  1       19
siesta:      1.53068  13.17140   9.92107  2       20
siesta:     -0.56692  12.28322   7.84237  2       21
siesta:     10.39350   3.70386  16.72408  1       22
siesta:     10.29901   3.60938  18.61381  2       23
siesta:     10.43129   5.51800  16.17606  2       24
siesta:      7.21876  13.22809   9.07069  1       25
siesta:      8.06913  11.52733   9.01400  2       26
siesta:      5.44241  13.02022   9.69430  2       27
siesta:     17.42328   9.50533  16.98864  1       28
siesta:     16.95085   9.33525  15.17451  2       29
siesta:     18.33035   7.95575  17.57446  2       30
siesta:     10.18563   1.20943   9.67540  1       31
siesta:      8.65495   1.22832  10.77144  2       32
siesta:     10.24232   2.77790   8.63605  2       33
siesta:     10.60137   4.19519   3.04246  1       34
siesta:     11.31946   2.60782   3.74166  2       35
siesta:      8.93841   4.55424   3.87394  2       36
siesta:     13.32257   1.20943   6.95419  1       37
siesta:     13.05801   1.34171   8.82502  2       38
siesta:     14.90995   0.24566   6.61404  2       39
siesta:     10.69585  10.14783  16.34614  1       40
siesta:     10.92262  11.39505  14.94774  2       41
siesta:     11.56513  10.79034  17.91461  2       42
siesta:      4.21409   9.92107   5.19675  1       43
siesta:      4.45976   8.33370   6.21720  2       44
siesta:      3.66607  11.31946   6.33059  2       45
siesta:     13.83280  11.98087   1.47399  1       46
siesta:     14.94774  11.48954   0.03779  2       47
siesta:     13.30368  13.79501   1.26612  2       48
siesta:      5.80146   1.19053  11.67851  1       49
siesta:      5.59359   2.96687  12.30212  2       50
siesta:      5.70698   0.00000  13.13360  2       51
siesta:      0.69920  14.47531  18.25476  1       52
siesta:      0.98266  14.87215  20.06890  2       53
siesta:      0.13228  12.68007  18.08469  2       54
siesta:      6.02823  15.30679  17.93351  1       55
siesta:      7.78567  15.98709  18.02799  2       56
siesta:      5.91485  13.70052  18.91617  2       57
siesta:      6.40617   9.61871   0.37795  1       58
siesta:      5.42352   8.05024   0.05669  2       59
siesta:      7.86126   9.71320  -0.83148  2       60
siesta:     15.40127  10.80924   6.14161  1       61
siesta:     15.53355   9.12738   5.27234  2       62
siesta:     13.62493  11.45174   5.99043  2       63
siesta:      8.93841   9.44863   3.60938  1       64
siesta:     10.09114  10.96042   3.68497  2       65
siesta:      7.14317  10.03445   3.74166  2       66
siesta:      5.97154  16.15716   5.83926  1       67
siesta:      4.34637  15.57135   6.63294  2       68
siesta:      5.89595  15.89260   3.96843  2       69
siesta:      1.56847   5.14006   0.68030  1       70
siesta:      1.47399   5.12116   2.57003  2       71
siesta:      0.00000   4.36527  -0.03779  2       72
siesta:     17.06423   1.62517   2.51334  1       73
siesta:     18.02799   1.64406   0.88817  2       74
siesta:     18.12248   0.83148   3.85504  2       75
siesta:      4.96998   6.16051  13.60603  1       76
siesta:      3.47710   7.12427  12.96353  2       77
siesta:      4.79991   5.87705  15.45797  2       78
siesta:     17.30990  17.19651   5.49911  1       79
siesta:     18.50043  17.91461   4.21409  2       80
siesta:     18.06579  15.62804   6.23610  2       81
siesta:      1.36060   3.13695   6.00933  1       82
siesta:      1.03935   4.70542   4.98888  2       83
siesta:      3.06136   2.43775   5.59359  2       84
siesta:      4.51645   6.14161   8.48487  1       85
siesta:      5.74477   4.74321   8.27700  2       86
siesta:      4.89439   7.08648  10.07224  2       87
siesta:     11.22498  14.07847  12.32102  1       88
siesta:     12.16984  15.68473  11.96197  2       89
siesta:      9.56202  14.11626  11.41395  2       90
siesta:     16.23275  18.06579  16.27055  1       91
siesta:     17.25321  16.76188  17.17762  2       92
siesta:     15.62804  19.36970  17.51777  2       93
siesta:      8.08803   8.01244   9.82658  1       94
siesta:      8.65495   6.65184   8.65495  2       95
siesta:      7.35104   7.25655  11.39505  2       96

siesta: System type = bulk      

initatomlists: Number of atoms, orbitals, and projectors:     96   192   544

coxmol: Writing XMOL coordinates into file 32_h2o.xyz                                                          

siesta: ******************** Simulation parameters ****************************
siesta:
siesta: The following are some of the parameters of the simulation.
siesta: A complete list of the parameters used, including default values,
siesta: can be found in file out.fdf
siesta:
redata: Spin configuration                          = none
redata: Number of spin components                   = 1
redata: Time-Reversal Symmetry                      = T
redata: Spin-spiral                                 = F
redata: Long output                                 =   T
redata: Number of Atomic Species                    =        2
redata: Charge density info will appear in .RHO file
redata: Write Mulliken Pop.                         = Atomic and Orbital charges
redata: Mesh Cutoff                                 =   150.0000 Ry
redata: Net charge of the system                    =     0.0000 |e|
redata: Min. number of SCF Iter                     =        0
redata: Max. number of SCF Iter                     =       75
redata: SCF mix quantity                            = Hamiltonian
redata: Mix DM or H after convergence               =   F
redata: Recompute H after scf cycle                 =   F
redata: Mix DM in first SCF step                    =   T
redata: Write Pulay info on disk                    =   F
redata: New DM Mixing Weight                        =     0.1000
redata: New DM Occupancy tolerance                  = 0.000000000001
redata: No kicks to SCF
redata: DM Mixing Weight for Kicks                  =     0.5000
redata: Require Harris convergence for SCF          =   F
redata: Harris energy tolerance for SCF             =     0.000100 eV
redata: Require DM convergence for SCF              =   T
redata: DM tolerance for SCF                        =     0.0001
redata: Require EDM convergence for SCF             =   F
redata: EDM tolerance for SCF                       =     0.001000 eV
redata: Require H convergence for SCF               =   T
redata: Hamiltonian tolerance for SCF               =     0.001000 eV
redata: Require (free) Energy convergence for SCF   =   F
redata: (free) Energy tolerance for SCF             =     0.000100 eV
redata: Using Saved Data (generic)                  =   F
redata: Use continuation files for DM               =   T
redata: Neglect nonoverlap interactions             =   F
redata: Method of Calculation                       = Diagonalization
redata: Divide and Conquer                          =   T
redata: Electronic Temperature                      =    58.0222 K
redata: Fix the spin of the system                  =   F
redata: Dynamics option                             = Single-point calculation
mix.SCF: Pulay mixing                            = Pulay
mix.SCF:    Variant                              = stable
mix.SCF:    History steps                        = 3
mix.SCF:    Linear mixing weight                 =     0.100000
mix.SCF:    Mixing weight                        =     0.100000
mix.SCF:    SVD condition                        = 0.1000E-07
redata: ***********************************************************************

%block SCF.Mixers
  Pulay
%endblock SCF.Mixers

%block SCF.Mixer.Pulay
  # Mixing method
  method pulay
  variant stable

  # Mixing options
  weight 0.1000
  weight.linear 0.1000
  history 3
%endblock SCF.Mixer.Pulay

DM_history_depth set to one: no extrapolation allowed by default for geometry relaxation
Size of DM history Fstack: 1
Total number of electrons:   256.000000
Total ionic charge:   256.000000
 Kpoints in:            1 . Kpoints trimmed:            1

siesta: k-point coordinates (Bohr**-1) and weights:
siesta:    1    0.000000    0.000000    0.000000       1.000000

siesta: k-grid: Number of k-points =     1
siesta: k-grid: Cutoff (effective) =     4.933 Ang
siesta: k-grid: Supercell and displacements
siesta: k-grid:    1   0   0      0.000
siesta: k-grid:    0   1   0      0.000
siesta: k-grid:    0   0   1      0.000


                     ====================================
                        Single-point calculation
                     ====================================

outcoor: Atomic coordinates (Ang):                          
    0.19000000    3.68000000    6.47000000   1       1  O_lyp
   -0.63000000    4.11000000    6.86000000   2       2  H_lyp
   -0.09000000    2.95000000    5.84000000   2       3  H_lyp
    1.49000000    7.03000000    7.17000000   1       4  O_lyp
    2.06000000    7.81000000    6.92000000   2       5  H_lyp
    0.89000000    7.29000000    7.93000000   2       6  H_lyp
    6.85000000    0.26000000    6.65000000   1       7  O_lyp
    7.54000000    0.10000000    7.35000000   2       8  H_lyp
    6.12000000    0.83000000    7.03000000   2       9  H_lyp
    6.06000000    9.64000000    1.23000000   1      10  O_lyp
    6.13000000   10.48000000    0.69000000   2      11  H_lyp
    6.52000000    9.77000000    2.11000000   2      12  H_lyp
    5.98000000    7.29000000    2.70000000   1      13  O_lyp
    6.22000000    7.98000000    2.02000000   2      14  H_lyp
    5.20000000    7.62000000    3.24000000   2      15  H_lyp
    0.05000000    4.10000000    2.56000000   1      16  O_lyp
   -0.72000000    4.44000000    3.10000000   2      17  H_lyp
   -0.29000000    3.59000000    1.77000000   2      18  H_lyp
    0.55000000    7.01000000    4.29000000   1      19  O_lyp
    0.81000000    6.97000000    5.25000000   2      20  H_lyp
   -0.30000000    6.50000000    4.15000000   2      21  H_lyp
    5.50000000    1.96000000    8.85000000   1      22  O_lyp
    5.45000000    1.91000000    9.85000000   2      23  H_lyp
    5.52000000    2.92000000    8.56000000   2      24  H_lyp
    3.82000000    7.00000000    4.80000000   1      25  O_lyp
    4.27000000    6.10000000    4.77000000   2      26  H_lyp
    2.88000000    6.89000000    5.13000000   2      27  H_lyp
    9.22000000    5.03000000    8.99000000   1      28  O_lyp
    8.97000000    4.94000000    8.03000000   2      29  H_lyp
    9.70000000    4.21000000    9.30000000   2      30  H_lyp
    5.39000000    0.64000000    5.12000000   1      31  O_lyp
    4.58000000    0.65000000    5.70000000   2      32  H_lyp
    5.42000000    1.47000000    4.57000000   2      33  H_lyp
    5.61000000    2.22000000    1.61000000   1      34  O_lyp
    5.99000000    1.38000000    1.98000000   2      35  H_lyp
    4.73000000    2.41000000    2.05000000   2      36  H_lyp
    7.05000000    0.64000000    3.68000000   1      37  O_lyp
    6.91000000    0.71000000    4.67000000   2      38  H_lyp
    7.89000000    0.13000000    3.50000000   2      39  H_lyp
    5.66000000    5.37000000    8.65000000   1      40  O_lyp
    5.78000000    6.03000000    7.91000000   2      41  H_lyp
    6.12000000    5.71000000    9.48000000   2      42  H_lyp
    2.23000000    5.25000000    2.75000000   1      43  O_lyp
    2.36000000    4.41000000    3.29000000   2      44  H_lyp
    1.94000000    5.99000000    3.35000000   2      45  H_lyp
    7.32000000    6.34000000    0.78000000   1      46  O_lyp
    7.91000000    6.08000000    0.02000000   2      47  H_lyp
    7.04000000    7.30000000    0.67000000   2      48  H_lyp
    3.07000000    0.63000000    6.18000000   1      49  O_lyp
    2.96000000    1.57000000    6.51000000   2      50  H_lyp
    3.02000000    0.00000000    6.95000000   2      51  H_lyp
    0.37000000    7.66000000    9.66000000   1      52  O_lyp
    0.52000000    7.87000000   10.62000000   2      53  H_lyp
    0.07000000    6.71000000    9.57000000   2      54  H_lyp
    3.19000000    8.10000000    9.49000000   1      55  O_lyp
    4.12000000    8.46000000    9.54000000   2      56  H_lyp
    3.13000000    7.25000000   10.01000000   2      57  H_lyp
    3.39000000    5.09000000    0.20000000   1      58  O_lyp
    2.87000000    4.26000000    0.03000000   2      59  H_lyp
    4.16000000    5.14000000   -0.44000000   2      60  H_lyp
    8.15000000    5.72000000    3.25000000   1      61  O_lyp
    8.22000000    4.83000000    2.79000000   2      62  H_lyp
    7.21000000    6.06000000    3.17000000   2      63  H_lyp
    4.73000000    5.00000000    1.91000000   1      64  O_lyp
    5.34000000    5.80000000    1.95000000   2      65  H_lyp
    3.78000000    5.31000000    1.98000000   2      66  H_lyp
    3.16000000    8.55000000    3.09000000   1      67  O_lyp
    2.30000000    8.24000000    3.51000000   2      68  H_lyp
    3.12000000    8.41000000    2.10000000   2      69  H_lyp
    0.83000000    2.72000000    0.36000000   1      70  O_lyp
    0.78000000    2.71000000    1.36000000   2      71  H_lyp
    0.00000000    2.31000000   -0.02000000   2      72  H_lyp
    9.03000000    0.86000000    1.33000000   1      73  O_lyp
    9.54000000    0.87000000    0.47000000   2      74  H_lyp
    9.59000000    0.44000000    2.04000000   2      75  H_lyp
    2.63000000    3.26000000    7.20000000   1      76  O_lyp
    1.84000000    3.77000000    6.86000000   2      77  H_lyp
    2.54000000    3.11000000    8.18000000   2      78  H_lyp
    9.16000000    9.10000000    2.91000000   1      79  O_lyp
    9.79000000    9.48000000    2.23000000   2      80  H_lyp
    9.56000000    8.27000000    3.30000000   2      81  H_lyp
    0.72000000    1.66000000    3.18000000   1      82  O_lyp
    0.55000000    2.49000000    2.64000000   2      83  H_lyp
    1.62000000    1.29000000    2.96000000   2      84  H_lyp
    2.39000000    3.25000000    4.49000000   1      85  O_lyp
    3.04000000    2.51000000    4.38000000   2      86  H_lyp
    2.59000000    3.75000000    5.33000000   2      87  H_lyp
    5.94000000    7.45000000    6.52000000   1      88  O_lyp
    6.44000000    8.30000000    6.33000000   2      89  H_lyp
    5.06000000    7.47000000    6.04000000   2      90  H_lyp
    8.59000000    9.56000000    8.61000000   1      91  O_lyp
    9.13000000    8.87000000    9.09000000   2      92  H_lyp
    8.27000000   10.25000000    9.27000000   2      93  H_lyp
    4.28000000    4.24000000    5.20000000   1      94  O_lyp
    4.58000000    3.52000000    4.58000000   2      95  H_lyp
    3.89000000    3.84000000    6.03000000   2      96  H_lyp

outcell: Unit cell vectors (Ang):
        9.865000    0.000000    0.000000
        0.000000    9.865000    0.000000
        0.000000    0.000000    9.865000

outcell: Cell vector modules (Ang)   :    9.865000    9.865000    9.865000
outcell: Cell angles (23,13,12) (deg):     90.0000     90.0000     90.0000
outcell: Cell volume (Ang**3)        :    960.0443
 Folding of H and S is implicitly performed
<dSpData1D:S at geom step 0
  <sparsity:sparsity for geom step 0
    nrows_g=192 nrows=192 sparsity=.7779 nnzs=28678, refcount: 7>
  <dData1D:(new from dSpData1D) n=28678, refcount: 1>
refcount: 1>
new_DM -- step:     1
Initializing Density Matrix...

Attempting to read DM from file... Failed...
DM filled with atomic data:
<dSpData2D:DM initialized from atoms
  <sparsity:sparsity for geom step 0
    nrows_g=192 nrows=192 sparsity=.7779 nnzs=28678, refcount: 8>
  <dData2D:DM n=28678 m=1, refcount: 1>
refcount: 1>

No. of atoms with KB's overlaping orbs in proc 0. Max # of overlaps:      96      52
New grid distribution:   1
           1       1:   40    1:   40    1:   40

InitMesh: MESH =    80 x    80 x    80 =      512000
InitMesh: (bp) =    40 x    40 x    40 =       64000
InitMesh: Mesh cutoff (required, used) =   150.000   181.755 Ry
ExtMesh (bp) on 0 =    96 x    96 x    96 =      884736
PhiOnMesh: Number of (b)points on node 0 =                64000
PhiOnMesh: nlist on node 0 =              1389347

stepf: Fermi-Dirac step function

siesta: Program's energy decomposition (eV):
siesta: Ebs     =     -3030.327303
siesta: Eions   =     26107.343322
siesta: Ena     =      6263.768658
siesta: Ekin    =     11718.444277
siesta: Enl     =     -1970.546539
siesta: Eso     =         0.000000
siesta: Eldau   =         0.000000
siesta: DEna    =     -1201.067052
siesta: DUscf   =       259.937801
siesta: DUext   =         0.000000
siesta: Exc     =     -3820.226931
siesta: eta*DQ  =         0.000000
siesta: Emadel  =         0.000000
siesta: Emeta   =         0.000000
siesta: Emolmec =         0.000000
siesta: Ekinion =         0.000000
siesta: Eharris =    -14681.718736
siesta: Etot    =    -14857.033109
siesta: FreeEng =    -14857.033109

        iscf     Eharris(eV)        E_KS(eV)     FreeEng(eV)     dDmax    Ef(eV) dHmax(eV)
   scf:    1   -14681.718736   -14857.033109   -14857.033109  0.935345 -7.798445 12.747621
timer: Routine,Calls,Time,% = IterSCF        1       2.308  50.22
   scf:    2   -14898.594618   -14878.187720   -14878.187720  0.076815 -7.732083 10.790706
   scf:    3   -14956.955200   -14929.109844   -14929.109844  0.396101 -2.483511  1.347970
   scf:    4   -14927.077249   -14928.392119   -14928.392119  0.065838 -2.608168  1.701959
   scf:    5   -14929.962149   -14929.415990   -14929.415990  0.070225 -2.969066  0.330358
   scf:    6   -14929.428768   -14929.423799   -14929.423799  0.004326 -2.990437  0.232400
   scf:    7   -14929.434594   -14929.429524   -14929.429524  0.002492 -3.044897  0.185804
   scf:    8   -14929.440333   -14929.435503   -14929.435503  0.003468 -3.080117  0.140950
   scf:    9   -14929.438533   -14929.437328   -14929.437328  0.002484 -3.084639  0.126528
   scf:   10   -14929.439395   -14929.438474   -14929.438474  0.001447 -3.070980  0.095551
   scf:   11   -14929.440161   -14929.439353   -14929.439353  0.001188 -3.061570  0.063945
   scf:   12   -14929.440216   -14929.439868   -14929.439868  0.001118 -3.057227  0.033993
   scf:   13   -14929.439916   -14929.439902   -14929.439902  0.000385 -3.060547  0.028357
   scf:   14   -14929.440047   -14929.439979   -14929.439979  0.000312 -3.068077  0.020199
   scf:   15   -14929.440098   -14929.440045   -14929.440045  0.000380 -3.070896  0.016973
   scf:   16   -14929.440091   -14929.440073   -14929.440073  0.000334 -3.071053  0.014663
   scf:   17   -14929.440103   -14929.440089   -14929.440089  0.000149 -3.069512  0.011068
   scf:   18   -14929.440112   -14929.440101   -14929.440101  0.000142 -3.068295  0.007182
   scf:   19   -14929.440106   -14929.440104   -14929.440104  0.000108 -3.068057  0.005326
   scf:   20   -14929.440103   -14929.440104   -14929.440104  0.000052 -3.068597  0.004478
   scf:   21   -14929.440106   -14929.440105   -14929.440105  0.000041 -3.069634  0.003149
   scf:   22   -14929.440107   -14929.440106   -14929.440106  0.000051 -3.069958  0.002497
   scf:   23   -14929.440107   -14929.440107   -14929.440107  0.000053 -3.069944  0.001979
   scf:   24   -14929.440108   -14929.440107   -14929.440107  0.000014 -3.069763  0.001593
   scf:   25   -14929.440108   -14929.440107   -14929.440107  0.000021 -3.069554  0.001034
   scf:   26   -14929.440107   -14929.440108   -14929.440108  0.000015 -3.069539  0.000974

SCF Convergence by DM+H criterion
max |DM_out - DM_in|         :     0.0000148143
max |H_out - H_in|      (eV) :     0.0009742659
SCF cycle converged after 26 iterations

Using DM_out to compute the final energy and forces
No. of atoms with KB's overlaping orbs in proc 0. Max # of overlaps:      96      52

siesta: E_KS(eV) =           -14929.4401

siesta: E_KS - E_eggbox =    -14929.4401

siesta: Atomic forces (eV/Ang):
     1    4.111680    1.464860    1.460609
     2   -3.145074    1.393336    0.697892
     3   -0.886626   -3.291182   -3.160653
     4   -0.552465   -4.588738   -3.612528
     5    2.783628    3.420461   -0.484327
     6   -1.955717    1.342063    3.644427
     7    1.433468   -1.871125   -3.448459
     8    3.425667   -1.046169    3.385338
     9   -2.732432    2.159959    1.745209
    10   -2.066063   -5.093502   -2.511744
    11    0.545390    2.312309   -2.936540
    12    2.432886    0.616345    5.076433
    13    2.192252   -4.318103    0.848186
    14    0.788230    3.091380   -2.545463
    15   -3.651678    1.593069    2.754810
    16    4.757250   -0.551219    0.365611
    17   -0.011304    0.104438    3.591047
    18   -2.721753   -0.923061   -3.504826
    19    2.813034    2.829330   -3.962684
    20    1.058858   -0.026196    5.126429
    21   -4.284682   -2.803960   -1.207575
    22    0.167009   -4.176870   -4.176676
    23   -0.467236    0.886673    4.452927
    24    0.150976    4.258287   -0.913648
    25    2.347883    3.721247   -0.111435
    26    1.733961   -4.413458   -0.047660
    27   -3.478066   -0.608155    1.278124
    28   -1.311138    4.576165    2.878901
    29   -1.264076    0.159746   -3.806707
    30    2.732186   -3.514533    1.739072
    31    0.658677   -1.730336   -0.636293
    32   -3.906840   -0.592930    2.076298
    33   -0.228494    3.120395   -2.630141
    34    1.335990    3.077797   -3.678969
    35    1.845884   -3.035609    3.413190
    36   -3.365883    1.678164    1.643381
    37   -1.174708    2.029188   -5.042725
    38   -0.547258   -0.708292    3.959878
    39    3.709086   -1.876192   -0.701957
    40   -2.397117   -4.613719   -0.042553
    41    0.452238    3.463549   -4.213807
    42    1.821596    0.956174    3.802168
    43    1.657360    0.880160   -4.766994
    44   -0.028522   -3.205769    2.135769
    45   -1.718354    2.949353    2.401907
    46   -1.826365   -2.395203    2.858706
    47    3.212590   -1.552027   -3.331551
    48   -0.856973    3.904800   -0.391844
    49    0.618669   -1.202157   -4.363797
    50   -1.197135    4.629456    1.911697
    51   -0.332593   -3.004523    3.594265
    52   -0.383434    3.645477   -3.921597
    53    1.098831    0.612544    4.238922
    54   -1.291828   -4.995568   -0.271318
    55   -3.762570    3.031391   -2.162881
    56    4.297921    1.617692    0.174978
    57   -0.417046   -4.860324    1.933237
    58   -3.464497    3.737344    0.812379
    59   -2.441103   -3.302131   -0.460764
    60    3.772840    0.087525   -2.786346
    61    3.895463    2.334907    3.625396
    62   -3.350356   -1.741890   -3.209842
    63   -4.637156    2.398200   -0.702152
    64    3.558844   -4.425188    1.800603
    65    2.262850    2.552940    0.404960
    66   -3.848638    0.967544    0.193113
    67    3.143685    2.946983    1.509870
    68   -3.216368   -1.454637    1.837731
    69   -0.174058   -0.612969   -4.516534
    70    3.735644    2.402091   -4.019640
    71    0.803853   -0.228261    3.324697
    72   -3.460991   -1.750206   -1.679075
    73   -5.317585    3.470017   -2.349460
    74    2.353824   -0.558390   -3.558960
    75    1.008061    5.914158    1.772800
    76    4.634812   -2.030015   -2.926505
    77   -4.564100    2.172175   -1.094792
    78   -0.156116   -0.533924    4.379716
    79   -4.405656   -0.513904    2.287922
    80    4.323389   -5.234292   -0.843592
    81    2.023561   -4.108826    2.668007
    82   -3.055314   -3.173945    2.430564
    83   -0.518038    3.699850    0.260555
    84    4.430158   -1.576261   -0.302167
    85   -5.514934    0.323543   -3.709264
    86    2.388192   -3.827836   -0.342154
    87    0.070738    1.843990    2.406596
    88    1.679286   -4.187367    3.505202
    89    2.027824    4.038185   -0.685396
    90   -3.796669    0.090567   -2.505251
    91   -1.160588    1.383459   -4.341696
    92    2.808269   -3.783130    1.914708
    93   -1.779896    2.257838    2.557572
    94    2.426215    5.917288   -0.254869
    95    1.893231   -2.411461   -2.885787
    96   -0.622295   -1.528509    4.865940
----------------------------------------
   Tot   -0.023846    0.082345   -0.013861
----------------------------------------
   Max    5.917288
   Res    2.788432    sqrt( Sum f_i^2 / 3N )
----------------------------------------
   Max    5.917288    constrained

Stress-tensor-Voigt (kbar):     -194.25     -191.75     -212.40       24.18       14.21        3.07
(Free)E + p*V (eV/cell)   -14809.9186
Target enthalpy (eV/cell)   -14929.4401

mulliken: Atomic and Orbital Populations:

Species: O_lyp               
Atom  Qatom  Qorb
               2s      2py     2pz     2px     
   1  6.929   1.859   1.685   1.759   1.625
   4  6.951   1.863   1.693   1.715   1.679
   7  6.926   1.862   1.819   1.717   1.527
  10  6.929   1.855   1.652   1.515   1.907
  13  6.934   1.848   1.718   1.651   1.717
  16  6.804   1.868   1.769   1.520   1.647
  19  6.977   1.850   1.870   1.583   1.674
  22  6.977   1.854   1.587   1.541   1.995
  25  6.909   1.866   1.654   1.927   1.462
  28  6.923   1.855   1.703   1.500   1.864
  31  6.867   1.859   1.625   1.678   1.705
  34  6.900   1.861   1.668   1.789   1.583
  37  6.965   1.838   1.881   1.577   1.669
  40  6.967   1.856   1.780   1.460   1.871
  43  6.911   1.849   1.425   1.711   1.926
  46  6.898   1.878   1.518   1.727   1.775
  49  6.932   1.865   1.434   1.688   1.946
  52  6.945   1.851   1.594   1.570   1.929
  55  6.962   1.873   1.624   1.877   1.589
  58  6.910   1.858   1.641   1.811   1.601
  61  6.904   1.851   1.508   1.882   1.664
  64  6.940   1.855   1.672   1.989   1.424
  67  6.905   1.879   1.944   1.431   1.652
  70  6.869   1.867   1.891   1.449   1.661
  73  6.817   1.864   1.893   1.358   1.702
  76  6.963   1.840   1.858   1.525   1.740
  79  6.834   1.858   1.621   1.673   1.682
  82  6.850   1.872   1.594   1.807   1.577
  85  6.854   1.852   1.588   1.635   1.778
  88  6.988   1.851   1.706   1.882   1.550
  91  6.935   1.855   1.562   1.694   1.823
  94  6.898   1.861   1.680   1.491   1.866

Species: H_lyp               
Atom  Qatom  Qorb
               1s      
   2  0.566   0.566
   3  0.471   0.471
   5  0.537   0.537
   6  0.508   0.508
   8  0.540   0.540
   9  0.546   0.546
  11  0.557   0.557
  12  0.527   0.527
  14  0.552   0.552
  15  0.479   0.479
  17  0.571   0.571
  18  0.601   0.601
  20  0.523   0.523
  21  0.494   0.494
  23  0.550   0.550
  24  0.524   0.524
  26  0.501   0.501
  27  0.570   0.570
  29  0.552   0.552
  30  0.503   0.503
  32  0.548   0.548
  33  0.605   0.605
  35  0.553   0.553
  36  0.520   0.520
  38  0.508   0.508
  39  0.535   0.535
  41  0.508   0.508
  42  0.540   0.540
  44  0.540   0.540
  45  0.565   0.565
  47  0.533   0.533
  48  0.551   0.551
  50  0.521   0.521
  51  0.521   0.521
  53  0.521   0.521
  54  0.496   0.496
  56  0.537   0.537
  57  0.509   0.509
  59  0.584   0.584
  60  0.532   0.532
  62  0.613   0.613
  63  0.461   0.461
  65  0.579   0.579
  66  0.540   0.540
  68  0.544   0.544
  69  0.558   0.558
  71  0.580   0.580
  72  0.561   0.561
  74  0.609   0.609
  75  0.609   0.609
  77  0.501   0.501
  78  0.504   0.504
  80  0.665   0.665
  81  0.490   0.490
  83  0.602   0.602
  84  0.554   0.554
  86  0.569   0.569
  87  0.566   0.566
  89  0.512   0.512
  90  0.533   0.533
  92  0.515   0.515
  93  0.562   0.562
  95  0.553   0.553
  96  0.549   0.549

mulliken: Qtot =      256.000

coxmol: Writing XMOL coordinates into file 32_h2o.xyz                                                          

siesta: Eigenvalues (eV):
  ik is    eps
   1  1 -29.83 -29.35 -28.99 -28.66 -28.44 -28.42 -28.17 -27.87 -27.85 -27.77
        -27.62 -27.43 -27.32 -27.23 -27.18 -27.00 -26.86 -26.85 -26.59 -26.45
        -26.31 -26.13 -26.07 -26.02 -25.97 -25.92 -25.19 -24.91 -24.68 -24.65
        -24.60 -22.91 -18.15 -17.67 -16.85 -16.50 -16.37 -16.05 -15.89 -15.50
        -15.45 -15.30 -15.24 -15.06 -15.05 -14.94 -14.75 -14.66 -14.63 -14.47
        -14.38 -14.13 -14.10 -13.97 -13.89 -13.70 -13.58 -13.42 -13.31 -12.97
        -12.84 -12.82 -12.64 -12.54 -12.50 -12.35 -11.74 -11.67 -11.65 -11.52
        -11.37 -11.20 -11.10 -11.07 -10.94 -10.85 -10.78 -10.71 -10.68 -10.60
        -10.49 -10.47 -10.37 -10.29 -10.25 -10.11 -10.01  -9.99  -9.91  -9.87
         -9.82  -9.76  -9.63  -9.57  -9.52  -9.39  -9.30  -9.24  -9.22  -9.16
         -9.12  -8.98  -8.91  -8.82  -8.79  -8.77  -8.73  -8.58  -8.49  -8.39
         -8.22  -8.19  -8.14  -8.10  -8.06  -7.92  -7.85  -7.78  -7.48  -7.38
         -7.32  -7.00  -6.80  -6.69  -6.56  -6.37  -5.94  -4.20  -0.89  -0.45
         -0.24   1.06   1.50   1.82   2.18   2.35   3.17   3.23   3.33   3.46
          3.66   3.81   3.98   4.11   4.31   4.35   4.48   4.66   4.76   4.86
          5.03   5.18   5.22   5.28   5.44   5.48   5.55   5.70   5.87   6.07
          6.22   6.26   6.35   6.46   6.59   6.62   6.76   6.85   7.03   7.16
          7.21   7.26   7.30   7.51   7.62   7.88   7.93   8.00   8.19   8.20
          8.88   9.02   9.07   9.14   9.19   9.39   9.64   9.72  10.57  10.66
         10.87  12.97
siesta: Fermi energy =      -3.069539 eV

siesta: Program's energy decomposition (eV):
siesta: Ebs     =     -3849.506068
siesta: Eions   =     26107.343322
siesta: Ena     =      6263.768658
siesta: Ekin    =     10808.649397
siesta: Enl     =     -1753.149378
siesta: Eso     =         0.000000
siesta: Eldau   =         0.000000
siesta: DEna    =      -581.067769
siesta: DUscf   =       109.145162
siesta: DUext   =         0.000000
siesta: Exc     =     -3669.442856
siesta: eta*DQ  =         0.000000
siesta: Emadel  =         0.000000
siesta: Emeta   =         0.000000
siesta: Emolmec =         0.000000
siesta: Ekinion =         0.000000
siesta: Eharris =    -14929.440107
siesta: Etot    =    -14929.440108
siesta: FreeEng =    -14929.440108

siesta: Final energy (eV):
siesta:  Band Struct. =   -3849.506068
siesta:       Kinetic =   10808.649397
siesta:       Hartree =    7785.801257
siesta:       Eldau   =       0.000000
siesta:       Eso     =       0.000000
siesta:    Ext. field =       0.000000
siesta:   Exch.-corr. =   -3669.442856
siesta:  Ion-electron =  -25568.335428
siesta:       Ion-ion =   -4286.112478
siesta:       Ekinion =       0.000000
siesta:         Total =  -14929.440108
siesta:         Fermi =      -3.069539

siesta: Atomic forces (eV/Ang):
siesta:      1    4.111680    1.464860    1.460609
siesta:      2   -3.145074    1.393336    0.697892
siesta:      3   -0.886626   -3.291182   -3.160653
siesta:      4   -0.552465   -4.588738   -3.612528
siesta:      5    2.783628    3.420461   -0.484327
siesta:      6   -1.955717    1.342063    3.644427
siesta:      7    1.433468   -1.871125   -3.448459
siesta:      8    3.425667   -1.046169    3.385338
siesta:      9   -2.732432    2.159959    1.745209
siesta:     10   -2.066063   -5.093502   -2.511744
siesta:     11    0.545390    2.312309   -2.936540
siesta:     12    2.432886    0.616345    5.076433
siesta:     13    2.192252   -4.318103    0.848186
siesta:     14    0.788230    3.091380   -2.545463
siesta:     15   -3.651678    1.593069    2.754810
siesta:     16    4.757250   -0.551219    0.365611
siesta:     17   -0.011304    0.104438    3.591047
siesta:     18   -2.721753   -0.923061   -3.504826
siesta:     19    2.813034    2.829330   -3.962684
siesta:     20    1.058858   -0.026196    5.126429
siesta:     21   -4.284682   -2.803960   -1.207575
siesta:     22    0.167009   -4.176870   -4.176676
siesta:     23   -0.467236    0.886673    4.452927
siesta:     24    0.150976    4.258287   -0.913648
siesta:     25    2.347883    3.721247   -0.111435
siesta:     26    1.733961   -4.413458   -0.047660
siesta:     27   -3.478066   -0.608155    1.278124
siesta:     28   -1.311138    4.576165    2.878901
siesta:     29   -1.264076    0.159746   -3.806707
siesta:     30    2.732186   -3.514533    1.739072
siesta:     31    0.658677   -1.730336   -0.636293
siesta:     32   -3.906840   -0.592930    2.076298
siesta:     33   -0.228494    3.120395   -2.630141
siesta:     34    1.335990    3.077797   -3.678969
siesta:     35    1.845884   -3.035609    3.413190
siesta:     36   -3.365883    1.678164    1.643381
siesta:     37   -1.174708    2.029188   -5.042725
siesta:     38   -0.547258   -0.708292    3.959878
siesta:     39    3.709086   -1.876192   -0.701957
siesta:     40   -2.397117   -4.613719   -0.042553
siesta:     41    0.452238    3.463549   -4.213807
siesta:     42    1.821596    0.956174    3.802168
siesta:     43    1.657360    0.880160   -4.766994
siesta:     44   -0.028522   -3.205769    2.135769
siesta:     45   -1.718354    2.949353    2.401907
siesta:     46   -1.826365   -2.395203    2.858706
siesta:     47    3.212590   -1.552027   -3.331551
siesta:     48   -0.856973    3.904800   -0.391844
siesta:     49    0.618669   -1.202157   -4.363797
siesta:     50   -1.197135    4.629456    1.911697
siesta:     51   -0.332593   -3.004523    3.594265
siesta:     52   -0.383434    3.645477   -3.921597
siesta:     53    1.098831    0.612544    4.238922
siesta:     54   -1.291828   -4.995568   -0.271318
siesta:     55   -3.762570    3.031391   -2.162881
siesta:     56    4.297921    1.617692    0.174978
siesta:     57   -0.417046   -4.860324    1.933237
siesta:     58   -3.464497    3.737344    0.812379
siesta:     59   -2.441103   -3.302131   -0.460764
siesta:     60    3.772840    0.087525   -2.786346
siesta:     61    3.895463    2.334907    3.625396
siesta:     62   -3.350356   -1.741890   -3.209842
siesta:     63   -4.637156    2.398200   -0.702152
siesta:     64    3.558844   -4.425188    1.800603
siesta:     65    2.262850    2.552940    0.404960
siesta:     66   -3.848638    0.967544    0.193113
siesta:     67    3.143685    2.946983    1.509870
siesta:     68   -3.216368   -1.454637    1.837731
siesta:     69   -0.174058   -0.612969   -4.516534
siesta:     70    3.735644    2.402091   -4.019640
siesta:     71    0.803853   -0.228261    3.324697
siesta:     72   -3.460991   -1.750206   -1.679075
siesta:     73   -5.317585    3.470017   -2.349460
siesta:     74    2.353824   -0.558390   -3.558960
siesta:     75    1.008061    5.914158    1.772800
siesta:     76    4.634812   -2.030015   -2.926505
siesta:     77   -4.564100    2.172175   -1.094792
siesta:     78   -0.156116   -0.533924    4.379716
siesta:     79   -4.405656   -0.513904    2.287922
siesta:     80    4.323389   -5.234292   -0.843592
siesta:     81    2.023561   -4.108826    2.668007
siesta:     82   -3.055314   -3.173945    2.430564
siesta:     83   -0.518038    3.699850    0.260555
siesta:     84    4.430158   -1.576261   -0.302167
siesta:     85   -5.514934    0.323543   -3.709264
siesta:     86    2.388192   -3.827836   -0.342154
siesta:     87    0.070738    1.843990    2.406596
siesta:     88    1.679286   -4.187367    3.505202
siesta:     89    2.027824    4.038185   -0.685396
siesta:     90   -3.796669    0.090567   -2.505251
siesta:     91   -1.160588    1.383459   -4.341696
siesta:     92    2.808269   -3.783130    1.914708
siesta:     93   -1.779896    2.257838    2.557572
siesta:     94    2.426215    5.917288   -0.254869
siesta:     95    1.893231   -2.411461   -2.885787
siesta:     96   -0.622295   -1.528509    4.865940
siesta: ----------------------------------------
siesta:    Tot   -0.023846    0.082345   -0.013861

siesta: Stress tensor (static) (eV/Ang**3):
siesta:    -0.121241    0.015091    0.001916
siesta:     0.015090   -0.119681    0.008868
siesta:     0.001916    0.008868   -0.132565

siesta: Cell volume =        960.044290 Ang**3

siesta: Pressure (static):
siesta:                Solid            Molecule  Units
siesta:           0.00135592          0.00061682  Ry/Bohr**3
siesta:           0.12449582          0.05663435  eV/Ang**3
siesta:         199.46645354         90.73920649  kBar
(Free)E+ p_basis*V_orbitals  =      -14917.393243
(Free)Eharris+ p_basis*V_orbitals  =      -14917.393243

timer: Elapsed wall time (sec) =      39.632
timer: CPU execution times (sec):

Routine            Calls   Time/call    Tot.time        %
siesta                 1      39.316      39.316   100.00
Setup                  1       0.144       0.144     0.37
bands                  1       0.000       0.000     0.00
KSV_init               1       0.000       0.000     0.00
IterGeom               1      39.164      39.164    99.61
state_init             1       0.040       0.040     0.10
hsparse                1       0.020       0.020     0.05
overlap                1       0.016       0.016     0.04
Setup_H0               1       2.104       2.104     5.35
naefs                  2       0.002       0.004     0.01
MolMec                 2       0.000       0.000     0.00
kinefsm                2       0.012       0.024     0.06
nlefsm                 2       0.040       0.080     0.20
DHSCF_Init             1       2.044       2.044     5.20
DHSCF1                 1       0.032       0.032     0.08
INITMESH               1       0.000       0.000     0.00
DHSCF2                 1       2.012       2.012     5.12
REMESH                 1       0.092       0.092     0.23
REORD                 71       0.001       0.068     0.17
PHION                  1       1.292       1.292     3.29
COMM_BSC              59       0.001       0.060     0.15
POISON                29       0.035       1.012     2.57
fft                   58       0.014       0.788     2.00
IterSCF               26       1.278      33.240    84.55
setup_H               27       1.206      32.560    82.82
DHSCF                 28       1.295      36.264    92.24
DHSCF3                28       1.205      33.752    85.85
rhoofd                28       0.188       5.268    13.40
CellXC                28       0.848      23.732    60.36
cellXC                28       0.848      23.732    60.36
vmat                  28       0.125       3.508     8.92
compute_dm            26       0.025       0.652     1.66
diagon                26       0.025       0.652     1.66
r-eigvec              26       0.020       0.508     1.29
r-buildHS             26       0.000       0.000     0.00
rdiag                 26       0.020       0.508     1.29
rdiag1                26       0.002       0.052     0.13
rdiag2                26       0.002       0.040     0.10
rdiag3                26       0.014       0.372     0.95
rdiag4                26       0.002       0.040     0.10
r-buildD              26       0.005       0.140     0.36
MIXER                 25       0.000       0.008     0.02
PostSCF                1       3.772       3.772     9.59
DHSCF4                 1       2.512       2.512     6.39
dfscf                  1       1.880       1.880     4.78
overfsm                1       0.012       0.012     0.03
state_analysis         1       0.008       0.008     0.02
siesta_move            1       0.000       0.000     0.00
Analysis               1       0.008       0.008     0.02
optical                1       0.000       0.000     0.00
  
>> End of run:  12-JAN-2018  10:28:05
Job completed
