    18
 Energy=    -6256.64145933641
O            -1.0776496210        1.5242710500       -0.7193697302
O             2.7938299210       -1.3428755490        0.3290700108
O             1.6490000740        0.8291054573       -1.0744283590
O            -2.7944976760       -0.4600580048        0.3294881492
O             1.1801558870       -2.6745052500        2.2285568660
O            -1.6308729810       -2.5131391140        1.8879425330
H             1.6298506290       -2.3950504040        3.0416316450
H             3.1824582730       -1.8226628600       -0.4188271086
H             2.3851034840       -0.5088285047       -0.1461451515
H             0.6429273460        1.0755658770       -0.9355327468
H            -1.7085525860        0.7673005088       -0.3739648019
H            -1.3636465990        2.2804008640       -0.1828211304
H            -2.3683453760       -1.1838655570        0.9483726843
H            -3.3448356970       -1.0032784330       -0.2558473014
H             1.7638651630       -2.2160914540        1.4940585420
H            -0.5936385492       -2.5624643440        2.0059629210
H            -1.9653335940       -2.9915371790        2.6641220480
H             2.0392138870        1.6602094530       -1.3909446720
    18
 Energy=    -6256.64145933656
O            -1.0776496190        1.5242710430       -0.7193696962
O             2.7938299340       -1.3428755750        0.3290699950
O             1.6490000610        0.8291054258       -1.0744283670
O            -2.7944977100       -0.4600579957        0.3294881602
O             1.1801559010       -2.6745051930        2.2285569090
O            -1.6308729660       -2.5131391230        1.8879424830
H             1.6298506230       -2.3950502760        3.0416316730
H             3.1824582570       -1.8226629030       -0.4188271307
H             2.3851035040       -0.5088285278       -0.1461451662
H             0.6429273338        1.0755658530       -0.9355327468
H            -1.7085525940        0.7673005127       -0.3739647660
H            -1.3636465610        2.2804008610       -0.1828210793
H            -2.3683453980       -1.1838655600        0.9483726714
H            -3.3448357090       -1.0032784150       -0.2558473185
H             1.7638651770       -2.2160914320        1.4940585630
H            -0.5936385383       -2.5624643200        2.0059629160
H            -1.9653335910       -2.9915372450        2.6641219560
H             2.0392138800        1.6602094280       -1.3909446580
    18
 Energy=    -6256.64145933652
O            -1.0776496200        1.5242710410       -0.7193696468
O             2.7938299710       -1.3428756160        0.3290699674
O             1.6490000400        0.8291053630       -1.0744283650
O            -2.7944977590       -0.4600579640        0.3294882088
O             1.1801559300       -2.6745050800        2.2285569920
O            -1.6308729330       -2.5131391670        1.8879423810
H             1.6298505810       -2.3950500300        3.0416317440
H             3.1824582090       -1.8226629950       -0.4188271722
H             2.3851035420       -0.5088285666       -0.1461451954
H             0.6429273145        1.0755658190       -0.9355327471
H            -1.7085526190        0.7673005338       -0.3739647017
H            -1.3636464990        2.2804008750       -0.1828210146
H            -2.3683454240       -1.1838655600        0.9483726633
H            -3.3448357360       -1.0032783580       -0.2558473142
H             1.7638652090       -2.2160913680        1.4940586150
H            -0.5936385100       -2.5624643020        2.0059629060
H            -1.9653335890       -2.9915374300        2.6641217490
H             2.0392138750        1.6602093600       -1.3909446710
    18
 Energy=    -6256.64145933672
O            -1.0776496210        1.5242710420       -0.7193696750
O             2.7938299010       -1.3428756710        0.3290698738
O             1.6490000850        0.8291054324       -1.0744283310
O            -2.7944976900       -0.4600580412        0.3294882076
O             1.1801559350       -2.6745050530        2.2285569790
O            -1.6308729400       -2.5131392660        1.8879424500
H             1.6298506150       -2.3950500140        3.0416317170
H             3.1824580680       -1.8226630290       -0.4188273214
H             2.3851035280       -0.5088285538       -0.1461452281
H             0.6429273658        1.0755658410       -0.9355327272
H            -1.7085526080        0.7673005439       -0.3739646909
H            -1.3636465320        2.2804009230       -0.1828211582
H            -2.3683453870       -1.1838656500        0.9483726702
H            -3.3448356180       -1.0032783800       -0.2558474146
H             1.7638651700       -2.2160913140        1.4940585770
H            -0.5936385163       -2.5624644240        2.0059630410
H            -1.9653337150       -2.9915373050        2.6641219010
H             2.0392139430        1.6602094750       -1.3909444710
    18
 Energy=    -6256.64145933758
O            -1.0776496870        1.5242711370       -0.7193698393
O             2.7938299640       -1.3428754640        0.3290699616
O             1.6490000760        0.8291054302       -1.0744282920
O            -2.7944975290       -0.4600579829        0.3294883896
O             1.1801559380       -2.6745051430        2.2285568350
O            -1.6308730190       -2.5131394430        1.8879426470
H             1.6298504620       -2.3950501890        3.0416316670
H             3.1824580450       -1.8226628960       -0.4188272284
H             2.3851034760       -0.5088284514       -0.1461452221
H             0.6429273669        1.0755659420       -0.9355327534
H            -1.7085526330        0.7673006835       -0.3739647068
H            -1.3636464790        2.2804011160       -0.1828213836
H            -2.3683453080       -1.1838656540        0.9483728383
H            -3.3448354030       -1.0032782630       -0.2558473376
H             1.7638651690       -2.2160911500        1.4940585720
H            -0.5936385933       -2.5624647370        2.0059631560
H            -1.9653338850       -2.9915376620        2.6641219460
H             2.0392140210        1.6602092830       -1.3909448520
    18
 Energy=    -6256.64145933891
O            -1.0776498440        1.5242712110       -0.7193703139
O             2.7938301250       -1.3428750480        0.3290702194
O             1.6490000430        0.8291055834       -1.0744280250
O            -2.7944973020       -0.4600579615        0.3294884424
O             1.1801558810       -2.6745058160        2.2285561380
O            -1.6308733080       -2.5131391570        1.8879435420
H             1.6298506470       -2.3950517160        3.0416311300
H             3.1824584480       -1.8226622250       -0.4188269866
H             2.3851033620       -0.5088281992       -0.1461449962
H             0.6429273114        1.0755660380       -0.9355326298
H            -1.7085527040        0.7673008183       -0.3739649340
H            -1.3636466950        2.2804014280       -0.1828222263
H            -2.3683452590       -1.1838655100        0.9483731706
H            -3.3448348150       -1.0032783900       -0.2558474856
H             1.7638651310       -2.2160913480        1.4940582000
H            -0.5936388534       -2.5624649820        2.0059634290
H            -1.9653341400       -2.9915373850        2.6641228840
H             2.0392139580        1.6602092150       -1.3909451600
    18
 Energy=    -6256.64145934517
O            -1.0776506830        1.5242712820       -0.7193714226
O             2.7938320550       -1.3428737190        0.3290716458
O             1.6489994580        0.8291049785       -1.0744268340
O            -2.7944978820       -0.4600574859        0.3294884352
O             1.1801558480       -2.6745077400        2.2285539310
O            -1.6308744880       -2.5131366010        1.8879462970
H             1.6298520430       -2.3950560970        3.0416289920
H             3.1824607110       -1.8226601030       -0.4188257694
H             2.3851040280       -0.5088275942       -0.1461438281
H             0.6429264360        1.0755653900       -0.9355320644
H            -1.7085536370        0.7673015736       -0.3739648498
H            -1.3636466160        2.2804021100       -0.1828238254
H            -2.3683459300       -1.1838642710        0.9483741776
H            -3.3448329870       -1.0032790620       -0.2558486815
H             1.7638654460       -2.2160925150        1.4940568990
H            -0.5936399424       -2.5624635580        2.0059638320
H            -1.9653344390       -2.9915378350        2.6641243360
H             2.0392125620        1.6602078050       -1.3909468720
    18
 Energy=    -6256.64145932168
O            -1.0776512840        1.5242709280       -0.7193730072
O             2.7938352470       -1.3428721600        0.3290739639
O             1.6489992060        0.8291036695       -1.0744252970
O            -2.7944979300       -0.4600566089        0.3294902760
O             1.1801547560       -2.6745077560        2.2285522500
O            -1.6308770640       -2.5131354890        1.8879478420
H             1.6298522380       -2.3950568280        3.0416266110
H             3.1824629420       -1.8226578710       -0.4188242790
H             2.3851062150       -0.5088264790       -0.1461423113
H             0.6429256501        1.0755642500       -0.9355317209
H            -1.7085539730        0.7673023472       -0.3739637368
H            -1.3636439970        2.2804016310       -0.1828242308
H            -2.3683464980       -1.1838636690        0.9483762829
H            -3.3448310150       -1.0032776990       -0.2558490253
H             1.7638656540       -2.2160930840        1.4940562210
H            -0.5936423771       -2.5624613610        2.0059631840
H            -1.9653347390       -2.9915426530        2.6641236160
H             2.0392089520        1.6602053880       -1.3909522400
    18
 Energy=    -6256.64145935756
O            -1.0776474700        1.5242706300       -0.7193770838
O             2.7938255030       -1.3428708840        0.3290715745
O             1.6490048790        0.8291142562       -1.0744264450
O            -2.7944824020       -0.4600587496        0.3294931757
O             1.1801508940       -2.6745051500        2.2285561260
O            -1.6308836280       -2.5131534290        1.8879482350
H             1.6298506710       -2.3950500660        3.0416283050
H             3.1824455170       -1.8226590500       -0.4188287085
H             2.3851032570       -0.5088213673       -0.1461415540
H             0.6429296844        1.0755688790       -0.9355348353
H            -1.7085474390        0.7673008787       -0.3739636967
H            -1.3636405160        2.2804021180       -0.1828285817
H            -2.3683367990       -1.1838705620        0.9483776315
H            -3.3448188750       -1.0032769680       -0.2558452446
H             1.7638564160       -2.2160913040        1.4940556140
H            -0.5936497723       -2.5624723930        2.0059655330
H            -1.9653394350       -2.9915456400        2.6641340030
H             2.0392114970        1.6602153570       -1.3909596500
    18
 Energy=    -6256.64145930841
O            -1.0776420140        1.5242704120       -0.7193820137
O             2.7938127600       -1.3428721450        0.3290684450
O             1.6490136470        0.8291262013       -1.0744284540
O            -2.7944672560       -0.4600632129        0.3294992085
O             1.1801458580       -2.6745011290        2.2285625120
O            -1.6308878110       -2.5131747460        1.8879433770
H             1.6298434840       -2.3950363820        3.0416324670
H             3.1824254170       -1.8226628600       -0.4188342690
H             2.3850997930       -0.5088168383       -0.1461433423
H             0.6429377011        1.0755785160       -0.9355393180
H            -1.7085357290        0.7672977550       -0.3739645176
H            -1.3636392190        2.2804008090       -0.1828348165
H            -2.3683272740       -1.1838812970        0.9483809179
H            -3.3448163640       -1.0032727820       -0.2558351725
H             1.7638479420       -2.2160875880        1.4940591210
H            -0.5936540144       -2.5624856930        2.0059654040
H            -1.9653418260       -2.9915501140        2.6641403020
H             2.0392168890        1.6602276500       -1.3909654520
    18
 Energy=    -6256.64145928538
O            -1.0776387330        1.5242710780       -0.7193824798
O             2.7938049720       -1.3428722200        0.3290663766
O             1.6490172390        0.8291322338       -1.0744312010
O            -2.7944591280       -0.4600649256        0.3295019494
O             1.1801441020       -2.6744979330        2.2285676220
O            -1.6308876040       -2.5131882990        1.8879383980
H             1.6298383250       -2.3950275920        3.0416374630
H             3.1824136560       -1.8226665560       -0.4188359705
H             2.3850968370       -0.5088146572       -0.1461453930
H             0.6429414816        1.0755840850       -0.9355419097
H            -1.7085304900        0.7672964268       -0.3739652848
H            -1.3636381860        2.2804008040       -0.1828348776
H            -2.3683212700       -1.1838869980        0.9483804417
H            -3.3448164940       -1.0032692320       -0.2558291269
H             1.7638446170       -2.2160845950        1.4940627510
H            -0.5936540428       -2.5624959620        2.0059651110
H            -1.9653439510       -2.9915518860        2.6641413330
H             2.0392206540        1.6602327840       -1.3909708050
    18
 Energy=    -6256.64145933100
O            -1.0776373230        1.5242713490       -0.7193861402
O             2.7937982090       -1.3428722450        0.3290647361
O             1.6490218890        0.8291400881       -1.0744302630
O            -2.7944552620       -0.4600678160        0.3295024457
O             1.1801435980       -2.6745026020        2.2285679280
O            -1.6308873030       -2.5131933020        1.8879400180
H             1.6298374440       -2.3950335770        3.0416386760
H             3.1824065660       -1.8226662340       -0.4188383304
H             2.3850931900       -0.5088124168       -0.1461456485
H             0.6429460282        1.0755913590       -0.9355425391
H            -1.7085258870        0.7672949142       -0.3739684079
H            -1.3636434490        2.2804017260       -0.1828434562
H            -2.3683185910       -1.1838900370        0.9483817381
H            -3.3448184860       -1.0032706970       -0.2558250033
H             1.7638421430       -2.2160856210        1.4940633270
H            -0.5936534779       -2.5625025510        2.0059666610
H            -1.9653445150       -2.9915455890        2.6641491480
H             2.0392272110        1.6602398090       -1.3909704910
    18
 Energy=    -6256.64145933664
O            -1.0776366520        1.5242716320       -0.7193871995
O             2.7937965770       -1.3428704100        0.3290658238
O             1.6490229700        0.8291425091       -1.0744307830
O            -2.7944540230       -0.4600679295        0.3295043983
O             1.1801433920       -2.6745039620        2.2285685210
O            -1.6308860620       -2.5131973270        1.8879382120
H             1.6298353810       -2.3950360140        3.0416405360
H             3.1824047840       -1.8226656730       -0.4188364860
H             2.3850919270       -0.5088106957       -0.1461455016
H             0.6429475064        1.0755946970       -0.9355429151
H            -1.7085245950        0.7672946807       -0.3739697610
H            -1.3636440870        2.2804023850       -0.1828455939
H            -2.3683172490       -1.1838914280        0.9483820916
H            -3.3448221480       -1.0032678090       -0.2558210055
H             1.7638429280       -2.2160855350        1.4940655820
H            -0.5936520884       -2.5625078210        2.0059655720
H            -1.9653454040       -2.9915446070        2.6641494470
H             2.0392288270        1.6602398630       -1.3909765400
    18
 Energy=    -6256.64145936668
O            -1.0776367040        1.5242718750       -0.7193884331
O             2.7937958620       -1.3428688850        0.3290664181
O             1.6490238820        0.8291450388       -1.0744296080
O            -2.7944539940       -0.4600685709        0.3295038934
O             1.1801436040       -2.6745074220        2.2285671910
O            -1.6308858180       -2.5131967060        1.8879404210
H             1.6298360450       -2.3950432560        3.0416403280
H             3.1824045510       -1.8226639490       -0.4188357619
H             2.3850907430       -0.5088094098       -0.1461449082
H             0.6429484474        1.0755974680       -0.9355422014
H            -1.7085241840        0.7672945065       -0.3739715293
H            -1.3636461350        2.2804029330       -0.1828483649
H            -2.3683172360       -1.1838913720        0.9483823666
H            -3.3448232900       -1.0032684990       -0.2558204948
H             1.7638434670       -2.2160868920        1.4940657500
H            -0.5936516517       -2.5625097290        2.0059660470
H            -1.9653460250       -2.9915410990        2.6641530050
H             2.0392304190        1.6602405230       -1.3909797200
    18
 Energy=    -6256.64145941346
O            -1.0776375030        1.5242716340       -0.7193909247
O             2.7937968180       -1.3428663950        0.3290678196
O             1.6490240670        0.8291467784       -1.0744285860
O            -2.7944539310       -0.4600678964        0.3295047311
O             1.1801440010       -2.6745120930        2.2285651270
O            -1.6308859930       -2.5131954310        1.8879433520
H             1.6298366160       -2.3950522470        3.0416395890
H             3.1824066250       -1.8226604400       -0.4188343101
H             2.3850895880       -0.5088080231       -0.1461437982
H             0.6429485466        1.0755992460       -0.9355419398
H            -1.7085245120        0.7672943977       -0.3739732503
H            -1.3636489170        2.2804037980       -0.1828534161
H            -2.3683175450       -1.1838907420        0.9483831016
H            -3.3448249970       -1.0032664900       -0.2558191236
H             1.7638455380       -2.2160897270        1.4940661690
H            -0.5936516610       -2.5625111570        2.0059657120
H            -1.9653464060       -2.9915390370        2.6641565230
H             2.0392316480        1.6602403800       -1.3909823780
    18
 Energy=    -6256.64145911484
O            -1.0776369230        1.5242706700       -0.7193856306
O             2.7937934020       -1.3428657770        0.3290678988
O             1.6490235010        0.8291458920       -1.0744322520
O            -2.7944506310       -0.4600718901        0.3295019070
O             1.1801424850       -2.6745099250        2.2285617800
O            -1.6308880700       -2.5131975860        1.8879418520
H             1.6298354560       -2.3950506330        3.0416363560
H             3.1824059310       -1.8226620400       -0.4188315678
H             2.3850897550       -0.5088053633       -0.1461452906
H             0.6429499767        1.0756037060       -0.9355387644
H            -1.7085242410        0.7672920091       -0.3739676636
H            -1.3636490870        2.2804025490       -0.1828487559
H            -2.3683161490       -1.1838960200        0.9483818054
H            -3.3448186250       -1.0032706320       -0.2558252037
H             1.7638426600       -2.2160867140        1.4940619760
H            -0.5936543858       -2.5625137670        2.0059648850
H            -1.9653478230       -2.9915265940        2.6641645080
H             2.0392347500        1.6602386710       -1.3909834420
    18
 Energy=    -6256.64145876565
O            -1.0776347810        1.5242508110       -0.7193853354
O             2.7937898240       -1.3428687840        0.3290528988
O             1.6490378410        0.8291545191       -1.0744402990
O            -2.7944476840       -0.4600873968        0.3294973309
O             1.1801361010       -2.6745071970        2.2285482900
O            -1.6309005380       -2.5131974870        1.8879561830
H             1.6298340780       -2.3950468190        3.0416194490
H             3.1824073260       -1.8226626170       -0.4188456101
H             2.3850893710       -0.5088041306       -0.1461582825
H             0.6429634919        1.0756088930       -0.9355462276
H            -1.7085214760        0.7672726620       -0.3739599083
H            -1.3636673180        2.2803934690       -0.1828747072
H            -2.3683169370       -1.1839145850        0.9483788496
H            -3.3448188830       -1.0032818980       -0.2558306671
H             1.7638366270       -2.2160879720        1.4940461710
H            -0.5936658867       -2.5625141590        2.0059650960
H            -1.9653551190       -2.9914810370        2.6642103340
H             2.0392659450        1.6602702830       -1.3909091670
    18
 Energy=    -6256.64145826005
O            -1.0776269640        1.5242263210       -0.7193802101
O             2.7937800830       -1.3428863870        0.3290246442
O             1.6490540480        0.8291590199       -1.0744539070
O            -2.7944439360       -0.4601027093        0.3294950505
O             1.1801295270       -2.6744852790        2.2285483540
O            -1.6309085580       -2.5132063680        1.8879572580
H             1.6298249770       -2.3949974710        3.0416107850
H             3.1823976770       -1.8226793880       -0.4188752941
H             2.3850885090       -0.5088124410       -0.1461802646
H             0.6429769125        1.0756028700       -0.9355635367
H            -1.7085140410        0.7672491953       -0.3739490442
H            -1.3636823580        2.2803798350       -0.1828973170
H            -2.3683155310       -1.1839346740        0.9483737633
H            -3.3448242010       -1.0032906770       -0.2558301744
H             1.7638263670       -2.2160802860        1.4940335160
H            -0.5936726284       -2.5625096820        2.0059647230
H            -1.9653585700       -2.9914501380        2.6642384190
H             2.0393006700        1.6603148160       -1.3907923680
    18
 Energy=    -6256.64145790943
O            -1.0776171060        1.5242072040       -0.7193738554
O             2.7937714070       -1.3429059770        0.3289973015
O             1.6490662890        0.8291590458       -1.0744663760
O            -2.7944424750       -0.4601131123        0.3294984167
O             1.1801233280       -2.6744578560        2.2285557000
O            -1.6309107210       -2.5132206740        1.8879494440
H             1.6298106250       -2.3949334880        3.0416096370
H             3.1823879150       -1.8226987970       -0.4189041180
H             2.3850873130       -0.5088259541       -0.1462022594
H             0.6429855760        1.0755893520       -0.9355832822
H            -1.7085056570        0.7672322436       -0.3739426809
H            -1.3636882880        2.2803688610       -0.1829108945
H            -2.3683139600       -1.1839500120        0.9483714222
H            -3.3448312600       -1.0032921900       -0.2558260747
H             1.7638163950       -2.2160688130        1.4940269670
H            -0.5936733247       -2.5625071960        2.0059656520
H            -1.9653588250       -2.9914398250        2.6642460970
H             2.0393247520        1.6603537450       -1.3906866990
    18
 Energy=    -6256.64145794712
O            -1.0776102210        1.5241983390       -0.7193673825
O             2.7937676050       -1.3429175880        0.3289810819
O             1.6490732220        0.8291562102       -1.0744771950
O            -2.7944435230       -0.4601175891        0.3295016330
O             1.1801185850       -2.6744366050        2.2285627170
O            -1.6309116920       -2.5132339520        1.8879415930
H             1.6297993520       -2.3948848350        3.0416111680
H             3.1823829140       -1.8227108210       -0.4189210888
H             2.3850871120       -0.5088372063       -0.1462164457
H             0.6429920318        1.0755780550       -0.9355943899
H            -1.7084979370        0.7672231479       -0.3739413380
H            -1.3636916070        2.2803623570       -0.1829118375
H            -2.3683151330       -1.1839575820        0.9483712271
H            -3.3448364950       -1.0032908670       -0.2558236637
H             1.7638112780       -2.2160620140        1.4940242800
H            -0.5936730383       -2.5625074290        2.0059646370
H            -1.9653578370       -2.9914405100        2.6642460300
H             2.0393373670        1.6603754440       -1.3906266270
    18
 Energy=    -6256.64145815521
O            -1.0775982230        1.5241844950       -0.7193673292
O             2.7937803660       -1.3429182020        0.3289703908
O             1.6490844060        0.8291528063       -1.0744898220
O            -2.7944504650       -0.4601216792        0.3295076496
O             1.1801116820       -2.6744186960        2.2285551440
O            -1.6309249320       -2.5132554370        1.8879368480
H             1.6297898860       -2.3948541240        3.0416003020
H             3.1824033000       -1.8227072530       -0.4189288387
H             2.3850934590       -0.5088386992       -0.1462274129
H             0.6430002155        1.0755642330       -0.9356005672
H            -1.7084913470        0.7672095018       -0.3739464153
H            -1.3636912660        2.2803462760       -0.1829138793
H            -2.3683268060       -1.1839645290        0.9483783824
H            -3.3448471400       -1.0032908880       -0.2558188617
H             1.7638063190       -2.2160524140        1.4940147340
H            -0.5936876270       -2.5625176100        2.0059606150
H            -1.9653669640       -2.9914182430        2.6642689390
H             2.0393471190        1.6603970200       -1.3905754810
    18
 Energy=    -6256.64145846822
O            -1.0775913200        1.5241739280       -0.7193641118
O             2.7937876600       -1.3429170170        0.3289653386
O             1.6490932390        0.8291495725       -1.0744985070
O            -2.7944576950       -0.4601229756        0.3295114358
O             1.1801061620       -2.6744031000        2.2285503560
O            -1.6309354300       -2.5132682710        1.8879340380
H             1.6297839340       -2.3948297710        3.0415933600
H             3.1824153390       -1.8227054270       -0.4189329291
H             2.3851011660       -0.5088403595       -0.1462343714
H             0.6430104149        1.0755549690       -0.9356001529
H            -1.7084852470        0.7671983847       -0.3739504887
H            -1.3636914680        2.2803350400       -0.1829123631
H            -2.3683379750       -1.1839656710        0.9483846438
H            -3.3448544270       -1.0032918430       -0.2558162349
H             1.7638042540       -2.2160460590        1.4940074170
H            -0.5936979079       -2.5625254680        2.0059541820
H            -1.9653713340       -2.9914089190        2.6642819100
H             2.0393526170        1.6604095430       -1.3905491240
    18
 Energy=    -6256.64145882216
O            -1.0775869740        1.5241705220       -0.7193619116
O             2.7937896760       -1.3429173070        0.3289597500
O             1.6490997260        0.8291510347       -1.0745070410
O            -2.7944618460       -0.4601280443        0.3295059668
O             1.1801029370       -2.6743971400        2.2285446680
O            -1.6309441480       -2.5132757620        1.8879389630
H             1.6297857320       -2.3948249380        3.0415861220
H             3.1824162400       -1.8227059200       -0.4189381177
H             2.3851039490       -0.5088405499       -0.1462415756
H             0.6430180625        1.0755525910       -0.9355944232
H            -1.7084807730        0.7671925668       -0.3739543406
H            -1.3637001740        2.2803309900       -0.1829137665
H            -2.3683475930       -1.1839666320        0.9483871822
H            -3.3448491780       -1.0033034980       -0.2558240267
H             1.7638053280       -2.2160476110        1.4940017560
H            -0.5937073093       -2.5625299280        2.0059500710
H            -1.9653729750       -2.9913873130        2.6643076180
H             2.0393613030        1.6604234950       -1.3905224970
    18
 Energy=    -6256.64145911705
O            -1.0775847590        1.5241673960       -0.7193598446
O             2.7937871690       -1.3429125750        0.3289529151
O             1.6491058520        0.8291549456       -1.0745140210
O            -2.7944624940       -0.4601385251        0.3294903632
O             1.1801017130       -2.6744012320        2.2285322200
O            -1.6309590670       -2.5132759800        1.8879561300
H             1.6297895980       -2.3948353850        3.0415735500
H             3.1824189460       -1.8227050790       -0.4189406333
H             2.3851084550       -0.5088343406       -0.1462540588
H             0.6430271791        1.0755578290       -0.9355869650
H            -1.7084782380        0.7671853395       -0.3739598880
H            -1.3637064200        2.2803246500       -0.1829122115
H            -2.3683577690       -1.1839675520        0.9483872059
H            -3.3448353340       -1.0033249420       -0.2558434995
H             1.7638079890       -2.2160549710        1.4939916780
H            -0.5937231631       -2.5625357820        2.0059497960
H            -1.9653756450       -2.9913484910        2.6643545740
H             2.0393679710        1.6604412530       -1.3904929130
    18
 Energy=    -6256.64145935259
O            -1.0775871270        1.5241751990       -0.7193549719