    18
Energy=    -6256.57151885666    
O         -1.042253870         1.497816452       -0.7091344826    
O          2.721436822        -1.405688172        0.1893301949    
O          1.736585787         1.008576178       -0.9011842203    
O         -2.789523093       -0.4405460986        0.4010275922    
O          1.176597972        -2.818664259         2.085991394    
O         -1.634399751        -2.416433278         2.058397293    
H          1.746214267        -2.703552309         2.863002001    
H          3.105516619        -1.814707967       -0.6022238361    
H          2.358194577       -0.4974070744       -0.1801399400    
H         0.7045319952         1.160887371       -0.8791662072    
H         -1.675039008        0.7782621857       -0.2917334232    
H         -1.638353954         2.021163660        -1.269337708    
H         -2.364145529        -1.121892122         1.065651916    
H         -3.273541489        -1.038554570       -0.1892629098    
H          1.726007640        -2.326145293         1.347174569    
H        -0.5997392831        -2.558306992         2.064332562    
H         -1.903783795        -2.717876009         2.941251637    
H          2.064726077         1.855564853       -0.5626520336    
    18
Energy=    -6256.57151885687    
O         -1.042253868         1.497816428       -0.7091345071    
O          2.721436833        -1.405688179        0.1893301870    
O          1.736585787         1.008576165       -0.9011842241    
O         -2.789523101       -0.4405461058        0.4010275762    
O          1.176597966        -2.818664254         2.085991396    
O         -1.634399754        -2.416433263         2.058397291    
H          1.746214267        -2.703552299         2.863001999    
H          3.105516685        -1.814707964       -0.6022238251    
H          2.358194583       -0.4974070826       -0.1801399509    
H         0.7045319949         1.160887353       -0.8791662246    
H         -1.675039013        0.7782621737       -0.2917334450    
H         -1.638353962         2.021163729        -1.269337636    
H         -2.364145531        -1.121892116         1.065651910    
H         -3.273541520        -1.038554592       -0.1892628960    
H          1.726007652        -2.326145300         1.347174586    
H        -0.5997392914        -2.558306988         2.064332549    
H         -1.903783798        -2.717875992         2.941251639    
H          2.064726053         1.855564844       -0.5626520266    
    18
Energy=    -6256.57151885732    
O         -1.042253847         1.497816428       -0.7091344625    
O          2.721436842        -1.405688179        0.1893301696    
O          1.736585796         1.008576166       -0.9011842708    
O         -2.789523117       -0.4405461081        0.4010275856    
O          1.176597977        -2.818664241         2.085991403    
O         -1.634399761        -2.416433262         2.058397277    
H          1.746214213        -2.703552222         2.863002041    
H          3.105516708        -1.814707978       -0.6022238285    
H          2.358194599       -0.4974070892       -0.1801399860    
H         0.7045319996         1.160887325       -0.8791662418    
H         -1.675039005        0.7782621674       -0.2917334298    
H         -1.638353925         2.021163770        -1.269337576    
H         -2.364145527        -1.121892109         1.065651914    
H         -3.273541512        -1.038554627       -0.1892628693    
H          1.726007663        -2.326145281         1.347174594    
H        -0.5997392998        -2.558307000         2.064332562    
H         -1.903783856        -2.717876057         2.941251586    
H          2.064726034         1.855564854       -0.5626520703    
    18
Energy=    -6256.57151885699    
O         -1.042253847         1.497816409       -0.7091344405    
O          2.721436870        -1.405688172        0.1893301531    
O          1.736585806         1.008576187       -0.9011842766    
O         -2.789523125       -0.4405461426        0.4010275663    
O          1.176597937        -2.818664220         2.085991353    
O         -1.634399787        -2.416433255         2.058397289    
H          1.746214176        -2.703552325         2.863002008    
H          3.105516803        -1.814707974       -0.6022238126    
H          2.358194629       -0.4974070900       -0.1801400206    
H         0.7045320075         1.160887314       -0.8791662459    
H         -1.675039025        0.7782621541       -0.2917334284    
H         -1.638353907         2.021163775        -1.269337549    
H         -2.364145529        -1.121892113         1.065651928    
H         -3.273541500        -1.038554706       -0.1892628613    
H          1.726007659        -2.326145258         1.347174569    
H        -0.5997393220        -2.558306991         2.064332559    
H         -1.903783863        -2.717875914         2.941251648    
H          2.064726002         1.855564879       -0.5626520414    
    18
Energy=    -6256.57151885698    
O         -1.042253850         1.497816416       -0.7091344272    
O          2.721436880        -1.405688174        0.1893301426    
O          1.736585812         1.008576203       -0.9011842771    
O         -2.789523116       -0.4405461587        0.4010275601    
O          1.176597913        -2.818664199         2.085991342    
O         -1.634399796        -2.416433267         2.058397290    
H          1.746214152        -2.703552365         2.863002007    
H          3.105516815        -1.814707983       -0.6022238158    
H          2.358194646       -0.4974070943       -0.1801400400    
H         0.7045320138         1.160887317       -0.8791662462    
H         -1.675039036        0.7782621630       -0.2917334200    
H         -1.638353902         2.021163764        -1.269337557    
H         -2.364145522        -1.121892113         1.065651943    
H         -3.273541481        -1.038554741       -0.1892628568    
H          1.726007654        -2.326145252         1.347174558    
H        -0.5997393236        -2.558306982         2.064332559    
H         -1.903783865        -2.717875874         2.941251666    
H          2.064725992         1.855564897       -0.5626520292    
    18
Energy=    -6256.57151885772    
O         -1.042253873         1.497816444       -0.7091344474    
O          2.721436883        -1.405688158        0.1893301633    
O          1.736585811         1.008576267       -0.9011842343    
O         -2.789523079       -0.4405461823        0.4010275405    
O          1.176597873        -2.818664232         2.085991314    
O         -1.634399798        -2.416433280         2.058397308    
H          1.746214163        -2.703552573         2.863001973    
H          3.105516734        -1.814707980       -0.6022238266    
H          2.358194666       -0.4974070742       -0.1801400030    
H         0.7045320153         1.160887374       -0.8791662321    
H         -1.675039040        0.7782621748       -0.2917334414    
H         -1.638353921         2.021163680        -1.269337676    
H         -2.364145477        -1.121892104         1.065651956    
H         -3.273541454        -1.038554786       -0.1892628495    
H          1.726007634        -2.326145288         1.347174544    
H        -0.5997393174        -2.558306984         2.064332557    
H         -1.903783824        -2.717875714         2.941251759    
H          2.064725987         1.855564972       -0.5626520059    
    18
Energy=    -6256.57151885761    
O         -1.042253895         1.497816541       -0.7091344007    
O          2.721436846        -1.405688233        0.1893301333    
O          1.736585756         1.008576227       -0.9011843007    
O         -2.789523060       -0.4405460849        0.4010276254    
O          1.176597918        -2.818664159         2.085991499    
O         -1.634399726        -2.416433292         2.058397184    
H          1.746214087        -2.703552200         2.863002211    
H          3.105516592        -1.814708113       -0.6022238837    
H          2.358194629       -0.4974071610       -0.1801400379    
H         0.7045319622         1.160887405       -0.8791662531    
H         -1.675039039        0.7782622462       -0.2917333747    
H         -1.638353962         2.021163713        -1.269337664    
H         -2.364145400        -1.121892018         1.065651992    
H         -3.273541363        -1.038554710       -0.1892628106    
H          1.726007682        -2.326145327         1.347174673    
H        -0.5997392263        -2.558306927         2.064332513    
H         -1.903783866        -2.717876257         2.941251412    
H          2.064726050         1.855564907       -0.5626521187    
    18
Energy=    -6256.57151886401    
O         -1.042254016         1.497816636       -0.7091343358    
O          2.721436898        -1.405688283        0.1893301903    
O          1.736585707         1.008576238       -0.9011843464    
O         -2.789523100       -0.4405460853        0.4010276545    
O          1.176597990        -2.818664303         2.085991559    
O         -1.634399611        -2.416433180         2.058397098    
H          1.746213987        -2.703552054         2.863002337    
H          3.105516429        -1.814708245       -0.6022238715    
H          2.358194662       -0.4974072241       -0.1801399348    
H         0.7045319589         1.160887504       -0.8791662673    
H         -1.675039092        0.7782622968       -0.2917333392    
H         -1.638354095         2.021163796        -1.269337593    
H         -2.364145366        -1.121892029         1.065651969    
H         -3.273541265        -1.038554738       -0.1892628431    
H          1.726007745        -2.326145443         1.347174783    
H        -0.5997391291        -2.558306891         2.064332480    
H         -1.903783877        -2.717876369         2.941251219    
H          2.064726157         1.855564929       -0.5626523594    
    18
Energy=    -6256.57151886347    
O         -1.042254163         1.497816608       -0.7091345260    
O          2.721436931        -1.405688234        0.1893302703    
O          1.736585664         1.008576350       -0.9011842834    
O         -2.789523033       -0.4405459968        0.4010278177    
O          1.176598111        -2.818664488         2.085991573    
O         -1.634399577        -2.416433085         2.058396922    
H          1.746214036        -2.703552432         2.863002453    
H          3.105516172        -1.814708450       -0.6022238342    
H          2.358194697       -0.4974071947       -0.1801398491    
H         0.7045319092         1.160887653       -0.8791662523    
H         -1.675039204        0.7782622481       -0.2917334581    
H         -1.638354322         2.021163774        -1.269337703    
H         -2.364145212        -1.121892155         1.065651900    
H         -3.273541273        -1.038554596       -0.1892626823    
H          1.726007890        -2.326145361         1.347175048    
H        -0.5997391371        -2.558306898         2.064332377    
H         -1.903783836        -2.717876223         2.941251085    
H          2.064726330         1.855565037       -0.5626524591    
    18
Energy=    -6256.57151885824    
O         -1.042254306         1.497816543       -0.7091343874    
O          2.721437081        -1.405688419        0.1893304103    
O          1.736585915         1.008575807       -0.9011847073    
O         -2.789523191       -0.4405459614        0.4010280603    
O          1.176598585        -2.818664180         2.085992314    
O         -1.634399274        -2.416433470         2.058395958    
H          1.746213423        -2.703550395         2.863003694    
H          3.105515244        -1.814709531       -0.6022237631    
H          2.358194973       -0.4974073690       -0.1801400525    
H         0.7045322048         1.160887326       -0.8791662295    
H         -1.675039569        0.7782623914       -0.2917332823    
H         -1.638354838         2.021165298        -1.269335721    
H         -2.364145458        -1.121892759         1.065651626    
H         -3.273541512        -1.038554121       -0.1892627548    
H          1.726008581        -2.326144906         1.347175967    
H        -0.5997387468        -2.558306869         2.064332128    
H         -1.903784087        -2.717877814         2.941249515    
H          2.064726957         1.855564984       -0.5626543785    
    18
Energy=    -6256.57151883877    
O         -1.042254331         1.497816293       -0.7091345618    
O          2.721437168        -1.405688082        0.1893306600    
O          1.736586363         1.008576029       -0.9011844896    
O         -2.789523030       -0.4405465599        0.4010277345    
O          1.176598579        -2.818664692         2.085991849    
O         -1.634399494        -2.416434162         2.058395907    
H          1.746212807        -2.703551337         2.863003759    
H          3.105514143        -1.814709829       -0.6022238051    
H          2.358195345       -0.4974068090       -0.1801400017    
H         0.7045325099         1.160887360       -0.8791657740    
H         -1.675039741        0.7782621014       -0.2917336241    
H         -1.638355144         2.021165823        -1.269334905    
H         -2.364145525        -1.121893741         1.065651181    
H         -3.273541565        -1.038554345       -0.1892632180    
H          1.726008939        -2.326144662         1.347175961    
H        -0.5997387240        -2.558307207         2.064331952    
H         -1.903783614        -2.717875300         2.941250852    
H          2.064727296         1.855565676       -0.5626550787    
    18
Energy=    -6256.57151889304    
O         -1.042254868         1.497818490       -0.7091335920    
O          2.721436421        -1.405688275        0.1893307129    
O          1.736585482         1.008575694       -0.9011846284    
O         -2.789522439       -0.4405463344        0.4010263011    
O          1.176599767        -2.818665020         2.085993082    
O         -1.634398972        -2.416434469         2.058396474    
H          1.746213896        -2.703551860         2.863005791    
H          3.105510318        -1.814711249       -0.6022247792    
H          2.358194374       -0.4974066286       -0.1801406666    
H         0.7045324905         1.160886963       -0.8791666077    
H         -1.675038798        0.7782641433       -0.2917327777    
H         -1.638357390         2.021166836        -1.269333651    
H         -2.364145297        -1.121893086         1.065650914    
H         -3.273537886        -1.038555875       -0.1892660783    
H          1.726009533        -2.326143810         1.347177467    
H        -0.5997381026        -2.558307626         2.064332551    
H         -1.903784758        -2.717876524         2.941250082    
H          2.064728213         1.855565188       -0.5626561943    
    18
Energy=    -6256.57151890122    
O         -1.042258021         1.497816836       -0.7091448734    
O          2.721439073        -1.405686034        0.1893350269    
O          1.736585682         1.008576189       -0.9011783156    
O         -2.789521603       -0.4405459294        0.4010268205    
O          1.176600439        -2.818670902         2.085991021    
O         -1.634396719        -2.416429560         2.058395437    
H          1.746220752        -2.703573493         2.863000796    
H          3.105513603        -1.814707765       -0.6022203021    
H          2.358194919       -0.4974058194       -0.1801350978    
H         0.7045320214         1.160886551       -0.8791664310    
H         -1.675042506        0.7782654603       -0.2917380127    
H         -1.638361485         2.021166136        -1.269342963    
H         -2.364144008        -1.121892907         1.065650745    
H         -3.273547554        -1.038552959       -0.1892587985    
H          1.726010630        -2.326146734         1.347178900    
H        -0.5997375442        -2.558309726         2.064328727    
H         -1.903779556        -2.717861391         2.941253752    
H          2.064723860         1.855568605       -0.5626520332    
    18
Energy=    -6256.57151885372    
O         -1.042264075         1.497819864       -0.7091547734    
O          2.721444558        -1.405681192        0.1893437814    
O          1.736577959         1.008575364       -0.9011734536    
O         -2.789522967       -0.4405416584        0.4010281355    
O          1.176601229        -2.818682747         2.085985033    
O         -1.634394741        -2.416414269         2.058398503    
H          1.746235522        -2.703621781         2.862990570    
H          3.105529340        -1.814694490       -0.6022110647    
H          2.358192604       -0.4974051519       -0.1801256111    
H         0.7045243561         1.160886523       -0.8791705014    
H         -1.675046044        0.7782708978       -0.2917392264    
H         -1.638369186         2.021155205        -1.269364223    
H         -2.364140580        -1.121886098         1.065653394    
H         -3.273549479        -1.038551759       -0.1892538767    
H          1.726009607        -2.326149506         1.347179456    
H        -0.5997377415        -2.558312045         2.064321097    
H         -1.903775570        -2.717836752         2.941260719    
H          2.064717192         1.855566151       -0.5626435615    
    18
Energy=    -6256.57151863207    
O         -1.042266462         1.497823781       -0.7091468603    
O          2.721448618        -1.405683521        0.1893465697    
O          1.736567388         1.008567948       -0.9011828186    
O         -2.789530892       -0.4405315064        0.4010369567    
O          1.176602449        -2.818678490         2.085990987    
O         -1.634391758        -2.416404040         2.058388829    
H          1.746240737        -2.703619346         2.862993559    
H          3.105551958        -1.814690071       -0.6022024843    
H          2.358189558       -0.4974133084       -0.1801248625    
H         0.7045136544         1.160886033       -0.8791771685    
H         -1.675048621        0.7782760385       -0.2917285833    
H         -1.638367154         2.021148051        -1.269370575    
H         -2.364139415        -1.121878297         1.065656444    
H         -3.273550890        -1.038543584       -0.1892483863    
H          1.726009170        -2.326146600         1.347184950    
H        -0.5997358913        -2.558310771         2.064311381    
H         -1.903775969        -2.717856097         2.941240960    
H          2.064715501         1.855550337       -0.5626445000    
    18
Energy=    -6256.57151804007    
O         -1.042278387         1.497840559       -0.7091339583    
O          2.721460836        -1.405696901        0.1893580706    
O          1.736539778         1.008531950       -0.9012050309    
O         -2.789554360       -0.4405068287        0.4010439244    
O          1.176616585        -2.818678447         2.086015708    
O         -1.634369144        -2.416382967         2.058361242    
H          1.746239734        -2.703579098         2.863023294    
H          3.105604881        -1.814693727       -0.6021763284    
H          2.358181188       -0.4974395906       -0.1801281748    
H         0.7044854065         1.160872428       -0.8791889623    
H         -1.675064895        0.7782966443       -0.2917179911    
H         -1.638375048         2.021184848        -1.269340939    
H         -2.364141426        -1.121858880         1.065650293    
H         -3.273558157        -1.038524990       -0.1892482861    
H          1.726024139        -2.326152716         1.347202876    
H        -0.5997106718        -2.558294495         2.064304841    
H         -1.903773179        -2.717926473         2.941176474    
H          2.064704705         1.855505241       -0.5626726535    
    18
Energy=    -6256.57151833244    
O         -1.042310858         1.497891774       -0.7091006480    
O          2.721479367        -1.405715643        0.1893740128    
O          1.736481119         1.008464975       -0.9012196542    
O         -2.789579427       -0.4404864552        0.4010338764    
O          1.176655072        -2.818709594         2.086038253    
O         -1.634319560        -2.416333841         2.058340951    
H          1.746229843        -2.703520316         2.863068808    
H          3.105661801        -1.814704776       -0.6021475774    
H          2.358169061       -0.4974779862       -0.1801300836    
H         0.7044331741         1.160840986       -0.8791808967    
H         -1.675101772        0.7783401273       -0.2917055068    
H         -1.638401287         2.021252406        -1.269302675    
H         -2.364149710        -1.121819685         1.065635423    
H         -3.273526188        -1.038519145       -0.1892917119    
H          1.726064767        -2.326192262         1.347223748    
H        -0.5996653983        -2.558264425         2.064293639    
H         -1.903770505        -2.717986174         2.941105306    
H          2.064682483         1.855436591       -0.5627108650    
    18
Energy=    -6256.57151826066    
O         -1.042332250         1.497917759       -0.7090909322    
O          2.721492402        -1.405725109        0.1893908026    
O          1.736452508         1.008427782       -0.9012267452    
O         -2.789594813       -0.4404730585        0.4010276149    
O          1.176674924        -2.818730670         2.086050249    
O         -1.634291288        -2.416311590         2.058323300    
H          1.746228054        -2.703504799         2.863090602    
H          3.105696472        -1.814711349       -0.6021218490    
H          2.358164698       -0.4974973409       -0.1801256390    
H         0.7044075711         1.160823426       -0.8791801483    
H         -1.675126889        0.7783654290       -0.2917057236    
H         -1.638419466         2.021297518        -1.269278658    
H         -2.364154164        -1.121802559         1.065624239    
H         -3.273521289        -1.038511860       -0.1893075439    
H          1.726089139        -2.326214574         1.347235735    
H        -0.5996371228        -2.558244642         2.064293542    
H         -1.903761811        -2.718010559         2.941065413    
H          2.064665310         1.855402755       -0.5627398594    
    18
Energy=    -6256.57151827787    
O         -1.042341281         1.497927132       -0.7090965304    
O          2.721498068        -1.405724840        0.1894008948    
O          1.736444093         1.008416833       -0.9012234364    
O         -2.789596428       -0.4404690798        0.4010240232    
O          1.176681061        -2.818744319         2.086049303    
O         -1.634282025        -2.416304950         2.058320885    
H          1.746231971        -2.703520598         2.863091937    
H          3.105706119        -1.814709650       -0.6021111534    
H          2.358164287       -0.4974993455       -0.1801186887    
H         0.7044000003         1.160816126       -0.8791790221    
H         -1.675135723        0.7783747931       -0.2917116302    
H         -1.638430220         2.021311022        -1.269279088    
H         -2.364154069        -1.121795868         1.065620944    
H         -3.273521791        -1.038509362       -0.1893093591    
H          1.726097767        -2.326225107         1.347237443    
H        -0.5996281954        -2.558239642         2.064295668    
H         -1.903757817        -2.718004144         2.941060539    
H          2.064656168         1.855397556       -0.5627483287    
    18
Energy=    -6256.57151830542    
O         -1.042348276         1.497933391       -0.7091017161    
O          2.721502261        -1.405718283        0.1894117772    
O          1.736436655         1.008410749       -0.9012180938    
O         -2.789595369       -0.4404678669        0.4010174636    
O          1.176684478        -2.818760287         2.086041509    
O         -1.634279262        -2.416299755         2.058321730    
H          1.746238485        -2.703560453         2.863084318    
H          3.105716286        -1.814700391       -0.6020967159    
H          2.358164550       -0.4974963423       -0.1801089892    
H         0.7043937886         1.160809586       -0.8791755047    
H         -1.675143177        0.7783794020       -0.2917183062    
H         -1.638437643         2.021318455        -1.269282959    
H         -2.364153061        -1.121792940         1.065617695    
H         -3.273524352        -1.038511556       -0.1893123792    
H          1.726103726        -2.326234642         1.347238040    
H        -0.5996252757        -2.558237253         2.064295825    
H         -1.903749611        -2.717973625         2.941071055    
H          2.064647780         1.855398366       -0.5627603516    
    18
Energy=    -6256.57151834430    
O         -1.042354328         1.497936106       -0.7091134490    
O          2.721507824        -1.405710549        0.1894246226    
O          1.736434727         1.008410575       -0.9012110052    
O         -2.789592598       -0.4404675553        0.4010144158    
O          1.176683419        -2.818774409         2.086030958    
O         -1.634278970        -2.416297605         2.058324878    
H          1.746248441        -2.703609652         2.863070871    
H          3.105722535        -1.814690286       -0.6020848206    
H          2.358166965       -0.4974895786       -0.1800955863    
H         0.7043921695         1.160806852       -0.8791747171    
H         -1.675147339        0.7783822844       -0.2917263683    
H         -1.638446792         2.021316529        -1.269295972    
H         -2.364150730        -1.121790856         1.065617482    
H         -3.273529605        -1.038511848       -0.1893073196    
H          1.726105518        -2.326240650         1.347235034    
H        -0.5996256164        -2.558239000         2.064297831    
H         -1.903745123        -2.717940177         2.941085299    
H          2.064641486         1.855406377       -0.5627677536    
    18
Energy=    -6256.57151830474    
O         -1.042357131         1.497937336       -0.7091212336    
O          2.721510178        -1.405705171        0.1894314906    
O          1.736433840         1.008411967       -0.9012063862    
O         -2.789589364       -0.4404673085        0.4010131294    
O          1.176681960        -2.818781620         2.086024554    
O         -1.634279780        -2.416297339         2.058327246    
H          1.746254283        -2.703641582         2.863062985    
H          3.105724798        -1.814683200       -0.6020787866    
H          2.358167338       -0.4974849389       -0.1800880322    
H         0.7043911148         1.160805768       -0.8791739738    
H         -1.675148511        0.7783831476       -0.2917308312    
H         -1.638451678         2.021312985        -1.269306071    
H         -2.364148203        -1.121790175         1.065617934    
H         -3.273532888        -1.038511496       -0.1893034811    
H          1.726106087        -2.326243195         1.347233626    
H        -0.5996263166        -2.558241233         2.064298424    
H         -1.903742705        -2.717919434         2.941094917    
H          2.064638961         1.855412045       -0.5627711120    
    18
Energy=    -6256.57151830621    
O         -1.042362990         1.497935078       -0.7091383581    
O          2.721518433        -1.405691430        0.1894484806    
O          1.736434249         1.008420211       -0.9011950488    
O         -2.789585643       -0.4404668346        0.4010133667    
O          1.176675139        -2.818797466         2.086003113    
O         -1.634286474        -2.416295137         2.058334280    
H          1.746273566        -2.703731891         2.863033316    
H          3.105738032        -1.814659865       -0.6020646281    
H          2.358171759       -0.4974713220       -0.1800654879    
H         0.7043906575         1.160806570       -0.8791725374    
H         -1.675150063        0.7783804564       -0.2917413423    
H         -1.638458828         2.021289768        -1.269341295    
H         -2.364143498        -1.121788250         1.065620377    
H         -3.273547558        -1.038510856       -0.1892874338    
H          1.726104106        -2.326245073         1.347225813    
H        -0.5996344930        -2.558247975         2.064298399    
H         -1.903737699        -2.717857237         2.941125030    
H          2.064633289         1.855427808       -0.5627716458    
    18
Energy=    -6256.57151808687    
O         -1.042373855         1.497922835       -0.7091719540    
O          2.721536770        -1.405666879        0.1894755090    
O          1.736437072         1.008442779       -0.9011652642    
O         -2.789579134       -0.4404709803        0.4010096365    
O          1.176659156        -2.818825456         2.085957213    
O         -1.634304489        -2.416287480         2.058352367    
H          1.746314770        -2.703934783         2.862970608    
H          3.105768219        -1.814599422       -0.6020518067    
H          2.358176954       -0.4974430017       -0.1800172013    
H         0.7043883033         1.160810190       -0.8791631369    
H         -1.675151804        0.7783663737       -0.2917664257    
H         -1.638466606         2.021231856        -1.269420527    
H         -2.364135218        -1.121787905         1.065619278    
H         -3.273589687        -1.038512923       -0.1892551587    
H          1.726103885        -2.326247087         1.347208881    
H        -0.5996547675        -2.558260499         2.064295409    
H         -1.903722419        -2.717701012         2.941201040    
H          2.064624832         1.855459951       -0.5627540685    
    18
Energy=    -6256.57151728554    