    24
Energy=    -193.671270772555    
T4        -1.190754432        0.6637185072        -1.635611962    
T4        -1.871380983         1.131359652        -2.119648219    
T4        -1.426965863        0.7811022075       -0.7154722626    
T4        -1.308120755        0.7386087456        -1.579785460    
T4        -1.110335083        -1.801074366       -0.1796022674    
T4        -1.444185654        -1.191376695        0.4784588132    
T4        -1.102821759        -1.296101554       -0.9927307010    
T4        -1.152110188        -1.658383096       -0.1994527594    
T4        -1.579536328        0.6742910222         1.103208935    
T4        -2.000338203         1.106724462         1.846282917    
T4       -0.6418562922        0.7580028741         1.276357182    
T4        -1.513369688        0.7403638468         1.220496434    
T4         1.444931156        -1.865995218        0.7342504042    
T4         1.642996401        -2.733427444         1.087185713    
T4        0.5631372008        -1.950114717        0.3714899185    
T4         1.357405632        -1.987805319        0.7329926630    
T4         1.086645050        0.7909830362         1.338257359    
T4         1.347713458       -0.1250663115         1.243765461    
T4         1.316486649         1.193635715        0.5008354225    
T4         1.149487453        0.7252620686         1.218961145    
T4         1.388479026         1.560075116        -1.275519132    
T4         1.975788080        0.9728516956        -1.751406273    
T4        0.5095507443         1.270225089        -1.519862900    
T4         1.351148247         1.447799133        -1.367717378    
    24
Energy=    -193.670938948076    
T4        -1.192610051        0.6646825905        -1.636843394    
T4        -1.874259394         1.131913181        -2.119835722    
T4        -1.427601268        0.7817422642       -0.7163500475    
T4        -1.309951102        0.7394787936        -1.580837985    
T4        -1.109249237        -1.800278515       -0.1801012100    
T4        -1.442693190        -1.190069319        0.4776918487    
T4        -1.102988007        -1.296179605       -0.9937823058    
T4        -1.151132573        -1.657633633       -0.2000567595    
T4        -1.578511353        0.6750692070         1.102307425    
T4        -1.999475208         1.106457916         1.845896731    
T4       -0.6408651883        0.7587745876         1.275642129    
T4        -1.512369783        0.7410074650         1.219684761    
T4         1.444518126        -1.866365756        0.7374383970    
T4         1.643563106        -2.735296288         1.086111119    
T4        0.5633394342        -1.950052630        0.3730862878    
T4         1.357196781        -1.988312277        0.7354312462    
T4         1.087610840        0.7914541128         1.338734603    
T4         1.348358890       -0.1248302479         1.245647202    
T4         1.317295981         1.192669436        0.5005801780    
T4         1.150392205        0.7255190618         1.219524414    
T4         1.387717687         1.557553849        -1.276173728    
T4         1.974285469        0.9716407940        -1.754583562    
T4        0.5084172129         1.269166597        -1.520908908    
T4         1.350244371         1.445632862        -1.368745014    
    24
Energy=    -193.669840736635    
T4        -1.194568764        0.6658883964        -1.636094336    
T4        -1.875093763         1.134775464        -2.119066886    
T4        -1.429603158        0.7829808636       -0.7156161840    
T4        -1.311771413        0.7409008466        -1.580088340    
T4        -1.107142483        -1.799321221       -0.1826649173    
T4        -1.441511002        -1.190698124        0.4761275084    
T4        -1.101808503        -1.293932055       -0.9955518588    
T4        -1.149262874        -1.656714211       -0.2023908744    
T4        -1.578747111        0.6740535336         1.103104698    
T4        -2.000071843         1.103931446         1.847364257    
T4       -0.6411675040        0.7585241259         1.276428207    
T4        -1.512660259        0.7398963477         1.220566401    
T4         1.445713812        -1.866213887        0.7387284903    
T4         1.645922980        -2.736846750         1.082453013    
T4        0.5651016251        -1.949307488        0.3728740516    
T4         1.358614016        -1.988302381        0.7358955940    
T4         1.087170878        0.7923767524         1.339044489    
T4         1.348514836       -0.1237866851         1.246439246    
T4         1.315769013         1.193097197        0.5003563128    
T4         1.149889377        0.7263938306         1.219827696    
T4         1.387193263         1.555730194        -1.277020885    
T4         1.971972443        0.9616464191        -1.747477705    
T4        0.5070554072         1.269179827        -1.520902170    
T4         1.349383789         1.442998399        -1.368464781    
    24
Energy=    -193.668534378735    
T4        -1.194929181        0.6677465701        -1.635026768    
T4        -1.874082916         1.138928969        -2.117695589    
T4        -1.430689313        0.7833197943       -0.7145422051    
T4        -1.312049194        0.7428583689        -1.578981071    
T4        -1.106101798        -1.799695076       -0.1838447621    
T4        -1.441354578        -1.193066969        0.4763368438    
T4        -1.100267905        -1.292039967       -0.9953150915    
T4        -1.148271390        -1.657053381       -0.2032115440    
T4        -1.580154036        0.6727609806         1.105099581    
T4        -2.000534860         1.101427467         1.850590592    
T4       -0.6423451722        0.7576908915         1.276952090    
T4        -1.513917004        0.7385075159         1.222530619    
T4         1.445920786        -1.865424076        0.7404470137    
T4         1.648176249        -2.736404493         1.082086709    
T4        0.5657390459        -1.949862958        0.3738654815    
T4         1.359138043        -1.987729273        0.7372541577    
T4         1.086184408        0.7938699962         1.337236124    
T4         1.348119560       -0.1222557343         1.245937374    
T4         1.314821490         1.193614856        0.4980931260    
T4         1.148983573        0.7277670148         1.218128355    
T4         1.388590203         1.553548268        -1.279126267    
T4         1.971621946        0.9549425210        -1.746006322    
T4        0.5076243675         1.268583514        -1.521873308    
T4         1.350451045         1.440440584        -1.369967097    
    24
Energy=    -193.667072980852    
T4        -1.194554457        0.6692375540        -1.632614523    
T4        -1.872976809         1.141826271        -2.114936881    
T4        -1.430912640        0.7833303340       -0.7120986417    
T4        -1.311657402        0.7443398639        -1.576520465    
T4        -1.105872361        -1.799926000       -0.1849140268    
T4        -1.442045881        -1.195055323        0.4764109080    
T4        -1.099537082        -1.290317989       -0.9951555835    
T4        -1.148095636        -1.657259282       -0.2039771511    
T4        -1.581012274        0.6712162209         1.106642473    
T4        -2.000353301         1.098771678         1.853356122    
T4       -0.6429506182        0.7570810562         1.276640710    
T4        -1.514609775        0.7369402127         1.223992654    
T4         1.444314701        -1.864975088        0.7440039836    
T4         1.647009454        -2.736130834         1.084935566    
T4        0.5648913893        -1.950022213        0.3757466479    
T4         1.357685281        -1.987380592        0.7405059575    
T4         1.085900626        0.7951162246         1.334390957    
T4         1.348101669       -0.1210993845         1.244772819    
T4         1.315930514         1.193761507        0.4951055284    
T4         1.148912124        0.7288609783         1.215480093    
T4         1.390666305         1.552199058        -1.282792631    
T4         1.971944636        0.9536669808        -1.751947929    
T4        0.5088120556         1.268084893        -1.523300560    
T4         1.352188961         1.439209690        -1.373638086    
    24
Energy=    -193.665733777990    
T4        -1.194189820        0.6701813170        -1.630982029    
T4        -1.872116302         1.143836766        -2.112955098    
T4        -1.430610857        0.7835681402       -0.7103950631    
T4        -1.311237334        0.7453298105        -1.574834158    
T4        -1.105856040        -1.799980760       -0.1856798377    
T4        -1.442809245        -1.196402304        0.4764284809    
T4        -1.099750626        -1.289175619       -0.9951689804    
T4        -1.148208549        -1.657326215       -0.2045463614    
T4        -1.582191310        0.6698013091         1.108126259    
T4        -2.001291886         1.096442014         1.855497824    
T4       -0.6440631532        0.7566199133         1.277270967    
T4        -1.515749517        0.7355302955         1.225451400    
T4         1.443760254        -1.863608399        0.7445003930    
T4         1.646864495        -2.735012475         1.084552512    
T4        0.5646713271        -1.948885456        0.3754986007    
T4         1.357226058        -1.986075126        0.7407944855    
T4         1.085507501        0.7967100002         1.333214962    
T4         1.347752140       -0.1196146900         1.244848388    
T4         1.316997461         1.194586747        0.4939662905    
T4         1.148711487        0.7303424084         1.214469019    
T4         1.392432070         1.549840301        -1.284619675    
T4         1.972143130        0.9501410830        -1.754223523    
T4        0.5098050378         1.266580095        -1.523293129    
T4         1.353655171         1.436810842        -1.375287715    
    24
Energy=    -193.663187901750    
T4        -1.193629425        0.6705726500        -1.628868080    
T4        -1.870415941         1.145841726        -2.110854758    
T4        -1.430283954        0.7837951151       -0.7083208805    
T4        -1.310560900        0.7459066673        -1.572727042    
T4        -1.105668343        -1.800691272       -0.1863294198    
T4        -1.443574819        -1.198961274        0.4769744796    
T4        -1.100911105        -1.288448210       -0.9949184713    
T4        -1.148315465        -1.658089281       -0.2049276721    
T4        -1.582941005        0.6685443325         1.110212518    
T4        -2.003213603         1.093507345         1.857881710    
T4       -0.6450557557        0.7577451204         1.279464749    
T4        -1.516680341        0.7343635023         1.227589523    
T4         1.443969409        -1.860683342        0.7423942180    
T4         1.647894881        -2.732586484         1.080670958    
T4        0.5650140448        -1.946070500        0.3730998348    
T4         1.357557438        -1.983228050        0.7384235854    
T4         1.082869459        0.7989627053         1.333363705    
T4         1.345008854       -0.1175489009         1.246638546    
T4         1.315843047         1.195666713        0.4939704261    
T4         1.146249894        0.7324210613         1.214809372    
T4         1.395156925         1.546300541        -1.286494491    
T4         1.971600905        0.9426207051        -1.755018591    
T4        0.5109751582         1.266133301        -1.523054761    
T4         1.355762775         1.433157452        -1.376753797    
    24
Energy=    -193.660598871761    
T4        -1.193460810        0.6706528685        -1.626955830    
T4        -1.869004424         1.147354170        -2.109271634    
T4        -1.430403467        0.7842568872       -0.7065297634    
T4        -1.310270062        0.7462190714        -1.570872431    
T4        -1.105749961        -1.800632129       -0.1870140718    
T4        -1.444256031        -1.200092447        0.4770624073    
T4        -1.102678782        -1.287731318       -0.9951942287    
T4        -1.148689674        -1.658098313       -0.2054610812    
T4        -1.584473293        0.6675623768         1.110878051    
T4        -2.006095472         1.091353874         1.858452359    
T4       -0.6468835201        0.7582518501         1.280974131    
T4        -1.518423216        0.7334221481         1.228350932    
T4         1.446208344        -1.857349325        0.7376059199    
T4         1.651986773        -2.729617749         1.073812514    
T4        0.5667653716        -1.943307128        0.3696070687    
T4         1.359971155        -1.980013843        0.7335361274    
T4         1.081167304        0.8012979277         1.334870121    
T4         1.343443905       -0.1151880046         1.248288596    
T4         1.314681031         1.198054425        0.4956517580    
T4         1.144634448        0.7347662896         1.216356566    
T4         1.396280566         1.541643340        -1.285500242    
T4         1.970678967        0.9315786209        -1.748230569    
T4        0.5112053068         1.264070384        -1.521777365    
T4         1.356510180         1.428015009        -1.374981629    
    24
Energy=    -193.658295851712    
T4        -1.192398636        0.6714247168        -1.627326742    
T4        -1.870826235         1.145381130        -2.108297793    
T4        -1.427595723        0.7846353795       -0.7064046411    
T4        -1.309353619        0.7465891866        -1.571007700    
T4        -1.107199506        -1.800154898       -0.1879497972    
T4        -1.445703307        -1.198697967        0.4752971978    
T4        -1.100800013        -1.287280619       -0.9961272900    
T4        -1.149712864        -1.657507059       -0.2065026495    
T4        -1.583108456        0.6669280805         1.111406459    
T4        -2.001772648         1.091697170         1.860087536    
T4       -0.6448569002        0.7570096684         1.278143277    
T4        -1.516595004        0.7328351788         1.228590994    
T4         1.440404595        -1.864095401        0.7505328910    
T4         1.640852720        -2.736087185         1.090654514    
T4        0.5629369528        -1.947919784        0.3773628911    
T4         1.353737929        -1.986451402        0.7463023001    
T4         1.085126721        0.8003860105         1.329285200    
T4         1.346154514       -0.1166904104         1.245218740    
T4         1.321360142         1.195061788        0.4898469113    
T4         1.148782156        0.7335124255         1.211065451    
T4         1.396815373         1.548159738        -1.291197466    
T4         1.972721579        0.9543909607        -1.772863867    
T4        0.5122814541         1.265912443        -1.523937774    
T4         1.357307302         1.436019111        -1.382650144    
    24
Energy=    -193.653838700676    
T4        -1.194497240        0.6734225249        -1.626153175    
T4        -1.872166228         1.148955890        -2.106636892    
T4        -1.429712069        0.7857665589       -0.7051294823    
T4        -1.311357383        0.7486779246        -1.569758743    
T4        -1.106669760        -1.798863607       -0.1901553309    
T4        -1.446303432        -1.198340866        0.4733604910    
T4        -1.100823842        -1.285482047       -0.9980148722    
T4        -1.149398619        -1.656270418       -0.2086330684    
T4        -1.583382302        0.6653410776         1.113642446    
T4        -2.001780123         1.089442847         1.862850556    
T4       -0.6450700552        0.7556377829         1.279920746    
T4        -1.516826983        0.7311902885         1.230835752    
T4         1.442145701        -1.859545058        0.7457338330    
T4         1.645490021        -2.731783735         1.083495016    
T4        0.5638855739        -1.944601857        0.3747131720    
T4         1.355748335        -1.982090429        0.7414762185    
T4         1.082504315        0.8021625477         1.332612510    
T4         1.344666974       -0.1144563009         1.247099549    
T4         1.319797376         1.198839626        0.4944173429    
T4         1.146440673        0.7356037281         1.214366725    
T4         1.399242716         1.540549832        -1.291511600    
T4         1.976256747        0.9402888657        -1.763712214    
T4        0.5152582151         1.256440668        -1.524073903    
T4         1.359946792         1.427339785        -1.381729756    
    24
Energy=    -193.643137461560    
T4        -1.195324115        0.6757178032        -1.625050779    
T4        -1.873340089         1.151217188        -2.105078397    
T4        -1.430946015        0.7865180816       -0.7039441295    
T4        -1.312280786        0.7507712337        -1.568587341    
T4        -1.105550592        -1.798252376       -0.1915729795    
T4        -1.445834653        -1.197600407        0.4714924850    
T4        -1.098247507        -1.284810524       -0.9993823442    
T4        -1.148176174        -1.655634926       -0.2101019451    
T4        -1.583294270        0.6647136228         1.114969309    
T4        -1.999682844         1.089214451         1.865070264    
T4       -0.6445435104        0.7538575913         1.279384039    
T4        -1.516425608        0.7304663538         1.232038350    
T4         1.439460682        -1.859315717        0.7483607629    
T4         1.642966814        -2.731442218         1.086314102    
T4        0.5614145676        -1.944741552        0.3769185914    
T4         1.353111426        -1.981893969        0.7440737883    
T4         1.084245640        0.8010082287         1.330751236    
T4         1.347489968       -0.1152601888         1.244806772    
T4         1.322787759         1.198788403        0.4934338347    
T4         1.148480359        0.7346354781         1.212562578    
T4         1.399318626         1.539372594        -1.293325156    
T4         1.978749523        0.9411557144        -1.765160128    
T4        0.5164844738         1.250981478        -1.524984957    
T4         1.360479349         1.425876074        -1.383380975    
    24
Energy=    -193.618931562432    
T4        -1.196543951        0.6784285248        -1.623378362    
T4        -1.872789850         1.156162332        -2.103684238    
T4        -1.433952436        0.7873546230       -0.7025069506    
T4        -1.313502735        0.7535280707        -1.566980658    
T4        -1.102189774        -1.798192882       -0.1921254184    
T4        -1.443763410        -1.198399126        0.4710538495    
T4        -1.095333972        -1.284367476       -0.9996947902    
T4        -1.145037695        -1.655636194       -0.2106090937    
T4        -1.583278758        0.6642848293         1.117402692    
T4        -1.999394703         1.088131671         1.868024578    
T4       -0.6444680316        0.7533641316         1.281509786    
T4        -1.516367520        0.7299455641         1.234499038    
T4         1.438512824        -1.853867770        0.7423665370    
T4         1.646072220        -2.725991942         1.077851806    
T4        0.5596989371        -1.941598196        0.3732847518    
T4         1.352584151        -1.976740739        0.7380657776    
T4         1.082760956        0.7988706188         1.330671825    
T4         1.348211720       -0.1167917302         1.245055272    
T4         1.321672628         1.197259256        0.4937491603    
T4         1.147325433        0.7326533429         1.212575675    
T4         1.399276697         1.534433669        -1.291587040    
T4         1.979545600        0.9269050459        -1.750312243    
T4        0.5168874486         1.244444079        -1.522946269    
T4         1.360601647         1.419540509        -1.379926173    
    24
Energy=    -193.521961840528    
T4        -1.193602834        0.6833399323        -1.618449033    
T4        -1.863729715         1.168212756        -2.100175249    
T4        -1.434710137        0.7904951473       -0.6983311775    
T4        -1.310251803        0.7591266640        -1.562329614    
T4        -1.096906865        -1.797269872       -0.1907301264    
T4        -1.441335696        -1.200905105        0.4740628382    
T4        -1.095220192        -1.282148075       -0.9975005582    
T4        -1.140781996        -1.654986181       -0.2089049552    
T4        -1.587326484        0.6614054766         1.120021976    
T4        -2.005780754         1.082408969         1.870944025    
T4       -0.6490234268        0.7521105601         1.286129774    
T4        -1.520779567        0.7269103480         1.237412861    
T4         1.444868088        -1.837956324        0.7164339460    
T4         1.665213999        -2.710189714         1.043371909    
T4        0.5633916250        -1.932564266        0.3554901525    
T4         1.360235401        -1.961723679        0.7120807894    
T4         1.077174780        0.7973014213         1.334895216    
T4         1.345840608       -0.1178621887         1.254111058    
T4         1.316255140         1.192505665        0.4965122326    
T4         1.142172418        0.7307403491         1.217230732    
T4         1.394387818         1.519167581        -1.281470641    
T4         1.970119641        0.8773563584        -1.697214627    
T4        0.5104608797         1.234552944        -1.513633335    
T4         1.354935125         1.400573894        -1.364410513    
    24
Energy=    -193.484924247180    
T4        -1.190419515        0.6844444289        -1.617941555    
T4        -1.861348887         1.168022868        -2.099851827    
T4        -1.431965266        0.7911640885       -0.6978880762    
T4        -1.307227339        0.7600097074        -1.561853939    
T4        -1.097562240        -1.797242200       -0.1896353130    
T4        -1.442048968        -1.200314321        0.4746220476    
T4        -1.094256650        -1.282284675       -0.9965056001    
T4        -1.141237542        -1.654907454       -0.2078914882    
T4        -1.583819719        0.6613130024         1.119568458    
T4        -2.001134725         1.082934124         1.870777920    
T4       -0.6452676444        0.7512764714         1.284669693    
T4        -1.517095085        0.7268020023         1.236867283    
T4         1.442085671        -1.842173269        0.7222552516    
T4         1.660279336        -2.714108450         1.051424516    
T4        0.5616727041        -1.936317173        0.3586046328    
T4         1.357313611        -1.965843047        0.7178412222    
T4         1.077642707        0.7949046973         1.329186718    
T4         1.345599163       -0.1207731841         1.251952038    
T4         1.317868275         1.186886937        0.4896193050    
T4         1.142696137        0.7278653369         1.211824989    
T4         1.390536224         1.524759387        -1.282389775    
T4         1.967302771        0.8890340264        -1.705976195    
T4        0.5068838444         1.238167063        -1.513160553    
T4         1.351251135         1.406691596        -1.366155391    
    24
Energy=    -193.474063231227    
T4        -1.199651320        0.6846521902        -1.613683884    
T4        -1.858651339         1.182740995        -2.097272921    
T4        -1.443979449        0.7926133563       -0.6945103465    
T4        -1.315288221        0.7622338984        -1.557923813    
T4        -1.092278034        -1.795341754       -0.1934419099    
T4        -1.439948153        -1.205682132        0.4756312239    
T4        -1.103954514        -1.278048210       -0.9987386811    
T4        -1.138278734        -1.653638394       -0.2108801790    
T4        -1.599172225        0.6574651157         1.124335991    
T4        -2.026868103         1.072267729         1.873500104    
T4       -0.6629584843        0.7534275801         1.299055412    
T4        -1.534075804        0.7228492079         1.242604230    
T4         1.468651827        -1.804089778        0.6618067532    
T4         1.711942570        -2.677496647        0.9687300281    
T4        0.5801424843        -1.908229823        0.3213102930    
T4         1.386056062        -1.929227577        0.6575089804    
T4         1.061476957        0.8076116212         1.361002612    
T4         1.335245205       -0.1053809450         1.273097209    
T4         1.296723462         1.210245182        0.5250737054    
T4         1.126636986        0.7422795111         1.242740675    
T4         1.400917936         1.477660503        -1.263961595    
T4         1.959236129        0.7740997920        -1.594892042    
T4        0.5129419808         1.211901265        -1.502923035    
T4         1.358717765         1.353575855        -1.336914632    
    24
Energy=    -193.450986792359    
T4        -1.210056444        0.6843336007        -1.609467495    
T4        -1.856328235         1.197302947        -2.094675760    
T4        -1.457138263        0.7937932825       -0.6912077313    
T4        -1.324416484        0.7640120258        -1.554031678    
T4        -1.087381384        -1.793418000       -0.1978014829    
T4        -1.438159322        -1.211406996        0.4763274875    
T4        -1.114651517        -1.273893851        -1.001283180    
T4        -1.135776098        -1.652408211       -0.2143601925    
T4        -1.615765388        0.6535203592         1.129242026    
T4        -2.054084870         1.061177527         1.876184798    
T4       -0.6821053328        0.7556833188         1.313832035    
T4        -1.552355818        0.7187834864         1.248489461    
T4         1.497188251        -1.765105953        0.5991873813    
T4         1.765307421        -2.639495314        0.8816536550    
T4        0.6010020518        -1.879362736        0.2829160980    
T4         1.416788093        -1.891664588        0.5948599322    
T4         1.044673459        0.8216678723         1.394932932    
T4         1.324389088       -0.8830010823E-01     1.295186849    
T4         1.274375800         1.235897146        0.5631380150    
T4         1.109885105        0.7582073367         1.275684445    
T4         1.413591704         1.428128270        -1.245236721    
T4         1.939916117        0.6631186502        -1.477561349    
T4        0.5204679358         1.189252269        -1.493228719    
T4         1.366636961         1.299618799        -1.306723044    
    24
Energy=    -193.435132032790    
T4        -1.216017631        0.6840254440        -1.607112666    
T4        -1.855018152         1.205199272        -2.093207322    
T4        -1.464635870        0.7943982816       -0.6893770572    
T4        -1.329643541        0.7648710368        -1.551857416    
T4        -1.084943680        -1.792347929       -0.2003541169    
T4        -1.437390786        -1.214655804        0.4766131541    
T4        -1.120920039        -1.271664406        -1.002741934    
T4        -1.134666569        -1.651742595       -0.2164094600    
T4        -1.625074847        0.6513097706         1.131949000    
T4        -2.069256928         1.054949467         1.877609187    
T4       -0.6928951062        0.7569110521         1.322004624    
T4        -1.562605259        0.7164987598         1.251731913    
T4         1.513530697        -1.743608834        0.5643293857    
T4         1.794933688        -2.618297852        0.8325891847    
T4        0.6133987492        -1.863414140        0.2616067313    
T4         1.434325926        -1.870916106        0.5599177244    
T4         1.035150709        0.8297549303         1.414059621    
T4         1.318127711       -0.7843619367E-01     1.307547938    
T4         1.261648581         1.250534590        0.5846773016    
T4         1.100369640        0.7673603823         1.294253897    
T4         1.421209963         1.400256424        -1.234881274    
T4         1.924152459        0.6052790990        -1.411775984    
T4        0.5251663339         1.178744264        -1.488396595    
T4         1.370888275         1.270133506        -1.289978950    
    24
Energy=    -193.432716145137    
T4        -1.217063885        0.6838206364        -1.606756132    
T4        -1.854969428         1.206211062        -2.092983034    
T4        -1.465897886        0.7943539974       -0.6890983220    
T4        -1.330577245        0.7648425172        -1.551527770    
T4        -1.084986994        -1.792198021       -0.2008789852    
T4        -1.437657974        -1.215134623        0.4765077982    
T4        -1.122246431        -1.271353441        -1.003103703    
T4        -1.134902792        -1.651652553       -0.2168597470    
T4        -1.626464662        0.6509684100         1.132294175    
T4        -2.071453407         1.054031716         1.877785174    
T4       -0.6944926531        0.7570523480         1.323098298    
T4        -1.564124929        0.7161454000         1.252151247    
T4         1.516454549        -1.740788422        0.5593366985    
T4         1.799663681        -2.615558999        0.8254210184    
T4        0.6157394790        -1.861266218        0.2586220457    
T4         1.437406339        -1.868192221        0.5549035981    
T4         1.033556254        0.8312419505         1.417091021    
T4         1.316973360       -0.7667387044E-01     1.309408868    
T4         1.259478855         1.253102137        0.5881007908    
T4         1.098757881        0.7690209651         1.297185655    
T4         1.422631316         1.396341533        -1.233498784    
T4         1.921708374        0.5971919749        -1.402359422    
T4        0.5261227859         1.177651037        -1.487818980    
T4         1.371755293         1.266045726        -1.287671036    
    24
Energy=    -193.427858858081    
T4        -1.219420034        0.6845869262        -1.605865998    
T4        -1.854653585         1.210051716        -2.092278304    
T4        -1.468728254        0.7953451528       -0.6883640269    
T4        -1.332652053        0.7660311482        -1.550681320    