    24
 Energy=    -196.290778845631
T4           -1.2638620390        0.7117997033       -1.5929931400
T4           -1.8261243290        1.3210843990       -2.0713916320
T4           -1.5121135280        0.8259821480       -0.6756243987
T4           -1.3676175810        0.8044122258       -1.5367996520
T4           -1.0515906060       -1.7635233580       -0.2123553521
T4           -1.4094075340       -1.2078251810        0.4800306834
T4           -1.1600338480       -1.2496425480       -1.0126043240
T4           -1.1112775330       -1.6266043430       -0.2261631092
T4           -1.6656842380        0.6530129469        1.1536150410
T4           -2.1643604180        1.0211803390        1.8830029200
T4           -0.7499421066        0.7980609015        1.3915420900
T4           -1.6122947640        0.7187107032        1.2774430220
T4            1.6063225360       -1.5035969850        0.2073689349
T4            2.0570925700       -2.3401699700        0.0925479621
T4            0.6818468518       -1.7077866460        0.0663613738
T4            1.5456824970       -1.6368271600        0.1746197961
T4            0.9702726895        0.9330114379        1.6003517000
T4            1.3199863740        0.0419965863        1.5953804720
T4            1.2128876960        1.2908136260        0.7463333201
T4            1.0460979080        0.8647537839        1.4903906660
T4            1.4559688590        0.9963450187       -1.1047653980
T4            1.6682574340        0.1077063558       -0.8193065967
T4            0.5580696494        0.9356042868       -1.4308319770
T4            1.3682024260        0.8748130020       -1.1099636840
    24
 Energy=    -196.289935278099
T4           -1.2650452490        0.7126461503       -1.5916709840
T4           -1.8289098050        1.3212348380       -2.0690685240
T4           -1.5122756400        0.8260361939       -0.6739282798
T4           -1.3688751880        0.8050681385       -1.5353014900
T4           -1.0517246950       -1.7639906200       -0.2147040945
T4           -1.4102927380       -1.2101320720        0.4787665302
T4           -1.1606591850       -1.2486005900       -1.0139151020
T4           -1.1115706600       -1.6271139010       -0.2282401392
T4           -1.6646296480        0.6507532393        1.1552788540
T4           -2.1624779030        1.0169362700        1.8862295650
T4           -0.7486482187        0.7963888416        1.3919223260
T4           -1.6111035570        0.7162721994        1.2791425830
T4            1.6050874370       -1.5025416130        0.2106518965
T4            2.0562222780       -2.3395283720        0.1003688067
T4            0.6811698931       -1.7070874540        0.0665366251
T4            1.5445655470       -1.6358703520        0.1780858370
T4            0.9713634980        0.9340937038        1.5989004020
T4            1.3200281110        0.0426971218        1.5901276420
T4            1.2134413530        1.2948783040        0.7459850340
T4            1.0469856610        0.8661689684        1.4885939250
T4            1.4565047410        0.9961360991       -1.1075542400
T4            1.6682600450        0.1080877675       -0.8198709213
T4            0.5582384729        0.9353223141       -1.4325945990
T4            1.3686230550        0.8746703003       -1.1123363920
    24
 Energy=    -196.288386331739
T4           -1.2635432630        0.7108296475       -1.5899864940
T4           -1.8269462680        1.3188813170       -2.0686116740
T4           -1.5119065620        0.8249942406       -0.6726457958
T4           -1.3674591440        0.8032820425       -1.5338256150
T4           -1.0526834560       -1.7649687800       -0.2133922309
T4           -1.4118486620       -1.2118579750        0.4803661083
T4           -1.1597330430       -1.2481765240       -1.0119521790
T4           -1.1123645740       -1.6280082800       -0.2268081012
T4           -1.6657254060        0.6506391833        1.1564435830
T4           -2.1632494020        1.0138631630        1.8890895090
T4           -0.7496664745        0.7963735953        1.3927259470
T4           -1.6121478850        0.7157919980        1.2804780940
T4            1.6048153970       -1.5006211270        0.2106460348
T4            2.0565828470       -2.3375489540        0.1025265454
T4            0.6810206023       -1.7062914230        0.0673465377
T4            1.5443902020       -1.6340862660        0.1784613712
T4            0.9706548312        0.9330125955        1.5971481480
T4            1.3173448370        0.0409078207        1.5834751550
T4            1.2133389480        1.2978663400        0.7461381567
T4            1.0461018300        0.8655181024        1.4864582930
T4            1.4580278670        0.9981845810       -1.1101584590
T4            1.6703742870        0.1104969761       -0.8217983476
T4            0.5589473861        0.9370583294       -1.4328808010
T4            1.3701176220        0.8767249601       -1.1145572390
    24
 Energy=    -196.286576779746
T4           -1.2625861740        0.7093747294       -1.5893945620
T4           -1.8241634820        1.3180345890       -2.0693903360
T4           -1.5126065570        0.8242790606       -0.6725965243
T4           -1.3664804710        0.8019996756       -1.5334786030
T4           -1.0524831740       -1.7659050420       -0.2124925436
T4           -1.4118500020       -1.2133954380        0.4816403398
T4           -1.1583236830       -1.2479808530       -1.0104801130
T4           -1.1120353260       -1.6288766020       -0.2257871964
T4           -1.6669451940        0.6515986945        1.1565532880
T4           -2.1641937330        1.0129640100        1.8903044990
T4           -0.7508290293        0.7978855155        1.3922717210
T4           -1.6133250840        0.7165842927        1.2806570990
T4            1.6045148720       -1.4995394960        0.2110238967
T4            2.0583627010       -2.3349483290        0.0999110263
T4            0.6811182986       -1.7071936360        0.0680191222
T4            1.5444069680       -1.6330641410        0.1784937723
T4            0.9702687701        0.9336055132        1.5963360630
T4            1.3145933020        0.0405971453        1.5818961210
T4            1.2142758930        1.2986805850        0.7457994347
T4            1.0455823200        0.8660236818        1.4856086260
T4            1.4586872650        0.9979249881       -1.1112789240
T4            1.6704841760        0.1102837815       -0.8223723701
T4            0.5588242936        0.9376278996       -1.4319699490
T4            1.3706065080        0.8765774496       -1.1153477200
    24
 Energy=    -196.278445080845
T4           -1.2632099770        0.7089899847       -1.5920418530
T4           -1.8250023400        1.3180419780       -2.0712879790
T4           -1.5125404250        0.8234332214       -0.6749982813
T4           -1.3670434830        0.8016061031       -1.5359984980
T4           -1.0503176520       -1.7671980940       -0.2129809888
T4           -1.4096167550       -1.2147169680        0.4812096196
T4           -1.1561109330       -1.2491848810       -1.0109170350
T4           -1.1098550890       -1.6301619030       -0.2262616565
T4           -1.6680608720        0.6529128210        1.1591203820
T4           -2.1653932960        1.0140344110        1.8929347300
T4           -0.7519886385        0.7997199654        1.3946860110
T4           -1.6144571240        0.7179338271        1.2832127140
T4            1.6030501170       -1.4986297130        0.2105666159
T4            2.0567928600       -2.3341510680        0.0998714182
T4            0.6795880518       -1.7063074730        0.0680197738
T4            1.5429203770       -1.6321717850        0.1781485795
T4            0.9696234814        0.9330346451        1.5984906960
T4            1.3141272640        0.0401044538        1.5835021260
T4            1.2130580110        1.2984923260        0.7479543044
T4            1.0448866790        0.8655117998        1.4876930590
T4            1.4604808210        0.9978412944       -1.1124837900
T4            1.6706575330        0.1097078249       -0.8239070578
T4            0.5603679934        0.9393957122       -1.4328161970
T4            1.3721606740        0.8766677554       -1.1165488990
    24
 Energy=    -196.275355645212
T4           -1.2613236790        0.7108506322       -1.5881386520
T4           -1.8254601910        1.3142365220       -2.0717782930
T4           -1.5157437610        0.8261148415       -0.6725970510
T4           -1.3661087990        0.8028465153       -1.5328499910
T4           -1.0512482970       -1.7652387170       -0.2104890144
T4           -1.4086576660       -1.2118702600        0.4839702958
T4           -1.1597664900       -1.2484943160       -1.0088816910
T4           -1.1108926470       -1.6282513610       -0.2237937392
T4           -1.6718099000        0.6488218312        1.1590307010
T4           -2.1671783000        1.0094988290        1.8943905390
T4           -0.7551399015        0.7964308293        1.3917527170
T4           -1.6178782130        0.7138885711        1.2829568580
T4            1.6072070010       -1.4993984740        0.2050646049
T4            2.0585597470       -2.3387533530        0.1156446673
T4            0.6838398901       -1.7069800980        0.0617646141
T4            1.5467834680       -1.6334189780        0.1752736463
T4            0.9696294097        0.9291941091        1.5949871790
T4            1.3076268860        0.0338547713        1.5760923060
T4            1.2131062610        1.2956172090        0.7448783771
T4            1.0440651390        0.8614864493        1.4837442240
T4            1.4595972160        1.0034967850       -1.1099584800
T4            1.6749130320        0.1148200203       -0.8268956826
T4            0.5600665120        0.9416908472       -1.4312937840
T4            1.3720094560        0.8818235319       -1.1148578220
    24
 Energy=    -196.250520902897
T4           -1.2619823210        0.7133989277       -1.5875353270
T4           -1.8325465230        1.3101701590       -2.0718414580
T4           -1.5161553600        0.8285285545       -0.6719081779
T4           -1.3675586390        0.8045308266       -1.5323210330
T4           -1.0500089520       -1.7627825590       -0.2097742011
T4           -1.4057783210       -1.2077059600        0.4841638115
T4           -1.1621309780       -1.2487791680       -1.0094372580
T4           -1.1099046950       -1.6259274220       -0.2233082824
T4           -1.6739583180        0.6434808775        1.1628181590
T4           -2.1698482200        1.0054541300        1.8971889160
T4           -0.7574518163        0.7914424915        1.3959598190
T4           -1.6201143180        0.7087586927        1.2866714210
T4            1.6092403710       -1.4996994290        0.1981203247
T4            2.0524280880       -2.3459172350        0.1370309454
T4            0.6846112740       -1.7022104500        0.0557048803
T4            1.5476100660       -1.6339493720        0.1720692520
T4            0.9687268133        0.9223725015        1.5950100830
T4            1.3067853840        0.0272356274        1.5689674310
T4            1.2078631500        1.2940139970        0.7459351445
T4            1.0426147250        0.8553587771        1.4829844730
T4            1.4611469150        1.0111670780       -1.1086558700
T4            1.6776153140        0.1205586523       -0.8326306813
T4            0.5629698920        0.9499953748       -1.4338756380
T4            1.3738799870        0.8893277383       -1.1149533700
    24
 Energy=    -196.231621777071
T4           -1.2633054570        0.7148017697       -1.5863292460
T4           -1.8384624900        1.3083027650       -2.0692192910
T4           -1.5157649780        0.8285960668       -0.6700613333
T4           -1.3692503610        0.8053441005       -1.5308516500
T4           -1.0506600670       -1.7607851040       -0.2099129481
T4           -1.4060647920       -1.2043413300        0.4831163792
T4           -1.1634764290       -1.2484830900       -1.0105695260
T4           -1.1105980150       -1.6239727490       -0.2236905347
T4           -1.6733146810        0.6405069403        1.1643025140
T4           -2.1702489070        1.0034577880        1.8974838680
T4           -0.7571225068        0.7881646161        1.3988679630
T4           -1.6196446060        0.7058709918        1.2881857800
T4            1.6106549310       -1.5011249870        0.1941574798
T4            2.0481349330       -2.3512492870        0.1479864682
T4            0.6849661518       -1.6996081640        0.0529606206
T4            1.5481583170       -1.6353593950        0.1701721317
T4            0.9683534683        0.9191145659        1.5952385680
T4            1.3087983000        0.0250219336        1.5647833280
T4            1.2046470100        1.2949012520        0.7471928325
T4            1.0421829380        0.8527651515        1.4827798440
T4            1.4619273680        1.0154676840       -1.1079160820
T4            1.6803383350        0.1245090363       -0.8345643347
T4            0.5647604163        0.9528190234       -1.4356331040
T4            1.3750384130        0.8933944434       -1.1148754930
    24
 Energy=    -196.206478302827
T4           -1.2658079860        0.7159402623       -1.5841474620
T4           -1.8456100510        1.3073282910       -2.0640657930
T4           -1.5156648420        0.8269602965       -0.6668263932
T4           -1.3720143370        0.8058569689       -1.5281546340
T4           -1.0523869610       -1.7587600070       -0.2105352355
T4           -1.4078026210       -1.2004650890        0.4809980850
T4           -1.1644889580       -1.2482827920       -1.0124566750
T4           -1.1122348620       -1.6219442790       -0.2246662466
T4           -1.6699690740        0.6387048540        1.1651948110
T4           -2.1681512420        1.0025535430        1.8970831210
T4           -0.7541513809        0.7857089629        1.4016257430
T4           -1.6165066880        0.7041001755        1.2891513560
T4            1.6122616620       -1.5041107450        0.1903737246
T4            2.0445977130       -2.3573283500        0.1538074055
T4            0.6853546071       -1.6986058270        0.0516408352
T4            1.5489506060       -1.6382306090        0.1679333110
T4            0.9666418203        0.9175597892        1.5958258370
T4            1.3114156350        0.0252398965        1.5622391440
T4            1.2003523510        1.2971800980        0.7487723268
T4            1.0406947960        0.8519280568        1.4830932660
T4            1.4631397160        1.0186685530       -1.1075980950
T4            1.6842742410        0.1276907714       -0.8365077878
T4            0.5668017246        0.9537614079       -1.4371388490
T4            1.3767055260        0.8963037497       -1.1150804570
    24
 Energy=    -196.177939957252
T4           -1.2674112500        0.7165211535       -1.5829660560
T4           -1.8498870320        1.3068583870       -2.0609365090
T4           -1.5156690170        0.8256894383       -0.6649888196
T4           -1.3737551670        0.8060662993       -1.5266398790
T4           -1.0530170290       -1.7583128690       -0.2109771435
T4           -1.4087060440       -1.1989891060        0.4795835654
T4           -1.1639066650       -1.2486251520       -1.0135690450
T4           -1.1127447250       -1.6214665020       -0.2253184879
T4           -1.6653498080        0.6385741978        1.1653042390
T4           -2.1640100070        1.0029988590        1.8965801880
T4           -0.7496615903        0.7848140354        1.4027086140
T4           -1.6119651900        0.7039454147        1.2893070080
T4            1.6122374710       -1.5062118090        0.1894211136
T4            2.0423320490       -2.3607902330        0.1586605575
T4            0.6848437529       -1.6991946620        0.0518335047
T4            1.5485771810       -1.6403122910        0.1678705174
T4            0.9638571022        0.9166360233        1.5964335840
T4            1.3110734690        0.0253188622        1.5614142630
T4            1.1966177120        1.2982896660        0.7500324757
T4            1.0381011530        0.8513929439        1.4836011350
T4            1.4635483070        1.0208538280       -1.1083413520
T4            1.6868174290        0.1294706328       -0.8403511675
T4            0.5673132591        0.9549754013       -1.4379693430
T4            1.3774005490        0.8983127909       -1.1162317350
    24
 Energy=    -196.153753350536
T4           -1.2712209440        0.7188152933       -1.5854534880
T4           -1.8615409010        1.3073781090       -2.0559298420
T4           -1.5124361030        0.8223949227       -0.6649545219
T4           -1.3776674710        0.8074178769       -1.5278451640
T4           -1.0540342230       -1.7627639730       -0.2151565813
T4           -1.4114112290       -1.2025266400        0.4737901849
T4           -1.1605552160       -1.2530556040       -1.0183268600
T4           -1.1134187640       -1.6257980140       -0.2297785690
T4           -1.6672810910        0.6397853877        1.1638274030
T4           -2.1644311390        1.0063680400        1.8950529690
T4           -0.7509646728        0.7807548355        1.4019947340
T4           -1.6136227380        0.7047581800        1.2879213890
T4            1.6142783000       -1.5043456440        0.1847334889
T4            2.0431121110       -2.3600982790        0.1801694318
T4            0.6869703962       -1.6998825740        0.0502076537
T4            1.5504676020       -1.6389233920        0.1669283046
T4            0.9715145668        0.9144825527        1.6026555610
T4            1.3220270870        0.0246799387        1.5623551740
T4            1.2061228110        1.3032296500        0.7600011205
T4            1.0464170840        0.8503414014        1.4896266900
T4            1.4602344290        1.0222883730       -1.1036202960
T4            1.6826617710        0.1298029935       -0.8386150798
T4            0.5635824713        0.9585472889       -1.4325339330
T4            1.3739255440        0.8998798489       -1.1118013450
    24
 Energy=    -196.093068929542
T4           -1.2727373800        0.7200286371       -1.5853299060
T4           -1.8687301460        1.3047487210       -2.0534398140
T4           -1.5108228550        0.8221920148       -0.6638583706
T4           -1.3795094580        0.8079580074       -1.5272941480
T4           -1.0524850730       -1.7675951920       -0.2192732255
T4           -1.4128769830       -1.2087741860        0.4692531681
T4           -1.1545746520       -1.2558237410       -1.0217067370
T4           -1.1116882830       -1.6305464410       -0.2338547108
T4           -1.6589571250        0.6414828842        1.1568189480
T4           -2.1541042860        1.0101298900        1.8883656070
T4           -0.7418766726        0.7765305765        1.3954764510
T4           -1.6049445730        0.7059618826        1.2810167860
T4            1.6113139730       -1.4994643610        0.1860150443
T4            2.0426838230       -2.3532115490        0.2216188575
T4            0.6860804107       -1.7035613720        0.0499301244
T4            1.5480934590       -1.6348811810        0.1731522504
T4            0.9736689532        0.9073788641        1.6089482050
T4            1.3216233230        0.0168519473        1.5628894700
T4            1.2137508010        1.3024898690        0.7708075009
T4            1.0489446840        0.8439596503        1.4957600090
T4            1.4522850360        1.0268549800       -1.1021988940
T4            1.6740951040        0.1317462789       -0.8456593335
T4            0.5543320280        0.9674930587       -1.4283712390
T4            1.3657305820        0.9046712249       -1.1111127300
    24
 Energy=    -196.040973658059
T4           -1.2720300630        0.7207541926       -1.5881021480
T4           -1.8700723450        1.3033965190       -2.0561888790
T4           -1.5090916300        0.8236089870       -0.6664435648
T4           -1.3789334310        0.8085060945       -1.5300394790
T4           -1.0498174190       -1.7708182850       -0.2206773607
T4           -1.4115385450       -1.2136093840        0.4684582626
T4           -1.1505960500       -1.2572761830       -1.0221447750
T4           -1.1090229680       -1.6337492380       -0.2350571853
T4           -1.6581296160        0.6419828957        1.1542950280
T4           -2.1517524560        1.0115960380        1.8863841320
T4           -0.7405160430        0.7744222416        1.3923643260
T4           -1.6038536870        0.7062516714        1.2784870080
T4            1.6087374630       -1.4960743060        0.1873610060
T4            2.0413415500       -2.3479797830        0.2451762553
T4            0.6848910755       -1.7049436880        0.0491102416
T4            1.5458525220       -1.6318662860        0.1770642896
T4            0.9763285006        0.9029597860        1.6126665840
T4            1.3206922590        0.0112258027        1.5631090920
T4            1.2192951370        1.3008522890        0.7766757889
T4            1.0515138770        0.8397421184        1.4993057190
T4            1.4479337930        1.0300414740       -1.1016171070
T4            1.6686348030        0.1338645734       -0.8478655230
T4            0.5493437278        0.9730949827       -1.4264629650
T4            1.3611558150        0.9080301807       -1.1107180320
    24
 Energy=    -195.844892868152
T4           -1.2663692260        0.7198154291       -1.5928666140
T4           -1.8634921330        1.2958216900       -2.0702478680
T4           -1.5099225440        0.8302438063       -0.6737805492
T4           -1.3739859260        0.8076873446       -1.5363230690
T4           -1.0448623980       -1.7707578260       -0.2228515706
T4           -1.4093808820       -1.2196310280        0.4696925564
T4           -1.1487061110       -1.2530209190       -1.0212229240
T4           -1.1048184100       -1.6339303760       -0.2363987324
T4           -1.6570115140        0.6410043353        1.1519241250
T4           -2.1521570220        1.0102237760        1.8831831560
T4           -0.7399184854        0.7753252075        1.3909432040
T4           -1.6029971410        0.7054635705        1.2761314290
T4            1.6011278340       -1.4929900700        0.1939422355
T4            2.0354395630       -2.3389754620        0.3030929479
T4            0.6815097779       -1.7127988770        0.0448833203
T4            1.5390027690       -1.6294245860        0.1888335040
T4            0.9831073209        0.8858055917        1.6140116420
T4            1.3125048970       -0.0111000551        1.5566588960
T4            1.2318722480        1.2865483880        0.7810932415
T4            1.0571190970        0.8222907607        1.5000461940
T4            1.4376327920        1.0466004740       -1.1022658990
T4            1.6625403190        0.1540861240       -0.8394606857
T4            0.5407074865        0.9814149371       -1.4301495400
T4            1.3516064090        0.9240033337       -1.1105967230
    24
 Energy=    -195.756217428827
T4           -1.2645062010        0.7186913988       -1.5947654720
T4           -1.8618773270        1.2924117740       -2.0745826320
T4           -1.5100130010        0.8307252365       -0.6763937223
T4           -1.3724047440        0.8064762116       -1.5386251930
T4           -1.0439321830       -1.7704487470       -0.2229147632
T4           -1.4088374910       -1.2203173550        0.4702168313
T4           -1.1475958630       -1.2516859710       -1.0206433280
T4           -1.1039146660       -1.6336173980       -0.2363044373
T4           -1.6578055500        0.6407300755        1.1519672880
T4           -2.1526653180        1.0104634190        1.8831600840
T4           -0.7406160905        0.7749732881        1.3906597600
T4           -1.6037422540        0.7052451551        1.2761243040
T4            1.5970260620       -1.4960546600        0.2012374717
T4            2.0292024260       -2.3411461400        0.3248328573
T4            0.6784962874       -1.7165758740        0.0466241230
T4            1.5347669580       -1.6324659410        0.1972667982
T4            0.9864738839        0.8815794513        1.6101584220
T4            1.3114130730       -0.0167269727        1.5493971530
T4            1.2358063900        1.2837697240        0.7781078667
T4            1.0599875890        0.8180705983        1.4958677370
T4            1.4362701560        1.0553061720       -1.1038559650
T4            1.6696868180        0.1639051424       -0.8447175710
T4            0.5395754123        0.9831292111       -1.4309046810
T4            1.3513625590        0.9319565634       -1.1125493060
    24
 Energy=    -195.587910895940
T4           -1.2668534360        0.7187229222       -1.6033223750
T4           -1.8633136680        1.2918232890       -2.0850100340
T4           -1.5149611360        0.8309510075       -0.6856736041
T4           -1.3749683210        0.8064532325       -1.5475140930
T4           -1.0426438970       -1.7714262280       -0.2235147338
T4           -1.4086101540       -1.2233397730        0.4706767213
T4           -1.1474386060       -1.2513841340       -1.0202619520
T4           -1.1029069800       -1.6346928870       -0.2366431088
T4           -1.6527511640        0.6421032249        1.1607638940
T4           -2.1520462580        1.0110737480        1.8893220610
T4           -0.7370378362        0.7769299118        1.4047366490
T4           -1.5994446060        0.7065953460        1.2852595860
T4            1.5948573100       -1.4898709920        0.2000164632
T4            2.0270686390       -2.3333044650        0.3343488284
T4            0.6773619699       -1.7127400700        0.0426521866
T4            1.5327351020       -1.6263705840        0.1970681007
T4            0.9845186450        0.8781580728        1.5973388590
T4            1.3058250960       -0.0211195362        1.5318118700
T4            1.2354564210        1.2837346560        0.7674173516
T4            1.0577728100        0.8149583850        1.4827106480
T4            1.4368519250        1.0522185500       -1.0902058120
T4            1.6721937140        0.1633383433       -0.8242395359
T4            0.5408257163        0.9753327463       -1.4180128380
T4            1.3522763480        0.9285888490       -1.0981221740
    24
 Energy=    -195.089048854518
T4           -1.2486236990        0.7169415466       -1.5936432990
T4           -1.8443891760        1.2869603130       -2.0798263330
T4           -1.5031116840        0.8291568433       -0.6777418676
T4           -1.3574664000        0.8042757377       -1.5386341600
T4           -1.0340921710       -1.7648400890       -0.2229940536
T4           -1.4009960940       -1.2177032520        0.4714515044
T4           -1.1354899380       -1.2426516490       -1.0187764150
T4           -1.0940404380       -1.6279535520       -0.2359663870
T4           -1.6608174220        0.6391997718        1.1567861850
T4           -2.1544382610        1.0102939280        1.8881270320
T4           -0.7431970956        0.7715681956        1.3948688940
T4           -1.6065403720        0.7036490562        1.2808840960
T4            1.5808454910       -1.4611341530        0.2035479583
T4            1.9986903650       -2.3078383410        0.3608041825
T4            0.6645777396       -1.6747348650        0.0273095293
T4            1.5170413490       -1.5968659730        0.2011180071
T4            0.9814831919        0.8742308610        1.6032121330
T4            1.2946461960       -0.0257723225        1.5129068600
T4            1.2248063900        1.2967844960        0.7795167483
T4            1.0527201400        0.8131115584        1.4862090220
T4            1.4348866580        1.0254701950       -1.1042040800
T4            1.6969607370        0.1426114470       -0.8432262100
T4            0.5420220932        0.9232196082       -1.4337029820
T4            1.3541378650        0.8993643147       -1.1129755990
    24
 Energy=    -194.554049425924
T4           -1.2432710340        0.7092176420       -1.5959606470
T4           -1.8476686520        1.2697441220       -2.0825255700
T4           -1.4973508580        0.8206586523       -0.6798513822
T4           -1.3531665040        0.7952375879       -1.5409737880
T4           -1.0411044510       -1.7703666170       -0.2177238757
T4           -1.4054559740       -1.2169107530        0.4730484560
T4           -1.1277757480       -1.2475794830       -1.0148521830
T4           -1.0988408130       -1.6325945280       -0.2313387238
T4           -1.6523816950        0.6416900698        1.1519166510
T4           -2.1360852600        1.0196862250        1.8863426920
T4           -0.7315292272        0.7684061503        1.3804021150
T4           -1.5964213610        0.7062993252        1.2751809410
T4            1.5627355050       -1.5078301130        0.2781994444
T4            1.9507369170       -2.3633196240        0.4621136650
T4            0.6474267470       -1.6985383200        0.0730846031
T4            1.4952338020       -1.6417560430        0.2754855091
T4            0.9897259503        0.8636931184        1.5548060770
T4            1.2966675920       -0.0371915744        1.4527010390
T4            1.2266923910        1.2926128380        0.7325490488
T4            1.0593527470        0.8032759076        1.4364765800
T4            1.4355189400        1.0942261800       -1.1234696610
T4            1.7638238340        0.2122197555       -0.9487916617
T4            0.5399408026        0.9599120322       -1.4335202200
T4            1.3629011210        0.9641248850       -1.1407989820
    24
 Energy=    -194.501536902311
T4           -1.2425720860        0.7085247775       -1.5962395670
T4           -1.8478603250        1.2680882140       -2.0828058500
T4           -1.4965118420        0.8199430941       -0.6800887063
T4           -1.3525636360        0.7944185372       -1.5412475580
T4           -1.0423350600       -1.7709714950       -0.2172758239