   220
Energy=    -453.178133127083    
N         -4.798262177        -4.189147923         7.182386302    
H1        -5.021588960        -4.627584727         6.296808402    
H2        -5.206295474        -3.266121698         7.192310914    
H3        -5.211920252        -4.734264406         7.925163378    
CA        -3.326744376        -4.113472650         7.375587633    
HA        -3.130468758        -3.562784132         8.296858459    
CB        -2.717101181        -5.513720168         7.530344185    
HB        -2.849276108        -6.082978475         6.607728520    
HB        -1.649357361        -5.427395570         7.740949639    
OG        -3.352599051        -6.193963480         8.602267696    
HG        -2.913078055        -7.053260588         8.715084202    
C         -2.637154054        -3.374227751         6.228404692    
O         -3.146071472        -3.351145920         5.107564014    
N         -1.462988446        -2.784416804         6.477483416    
H         -1.087521145        -2.816749942         7.416877931    
CA       -0.6056718637        -2.201994144         5.431571587    
HA        -1.238751938        -1.715574032         4.686968657    
CB        0.3011795849        -1.119325270         6.033513266    
HB        0.8113742128        -1.518358750         6.911941437    
HB         1.068980469       -0.8639508286         5.303065897    
CG       -0.3993753348        0.1544455327         6.394634909    
CD       -0.7532597587        0.5450806676         7.640499914    
HD       -0.5666566688       -0.2210523196E-01     8.548307329    
NE        -1.394522348         1.768980851         7.578365545    
HE        -1.751785990         2.252725702         8.396543532    
CE        -1.483825473         2.231014664         6.281640990    
CZ        -2.034226794         3.387500565         5.708565145    
HZ        -2.515436827         4.128792705         6.332421442    
CH        -1.946499030         3.570552340         4.317208430    
HH        -2.362680060         4.460019665         3.858768888    
CZ        -1.310004285         2.600504747         3.520867381    
HZ        -1.235571351         2.752319835         2.450918982    
CE       -0.7672128470         1.439354229         4.106808252    
HE       -0.2781145844        0.7008746096         3.488801149    
CD       -0.8429125056         1.222551280         5.500498095    
C         0.2175508874        -3.274755841         4.698197227    
O         0.6587423711        -4.258660427         5.298023404    
N         0.4380552488        -3.065557216         3.397345319    
H         0.1681509550E-01    -2.245271848         2.974724294    
CA         1.199128597        -3.951913645         2.494565744    
HA         1.817013113        -4.625858801         3.089877997    
CB        0.2649209273        -4.818281739         1.624185796    
HB        0.8814576824        -5.480921041         1.015626598    
CG       -0.6858442856        -5.685942094         2.450362062    
HG        -1.409769004        -5.066335040         2.980869723    
HG        -1.218581330        -6.370654478         1.790881892    
HG       -0.1144683358        -6.271725677         3.170894692    
OG       -0.5324708708        -4.035224172        0.7592813020    
HG       -0.8878504777        -3.290906058         1.274421602    
C          2.137376019        -3.141494426         1.593793780    
O          1.806048649        -2.018215609         1.213121813    
N          3.302442491        -3.692954253         1.245192597    
H          3.518058863        -4.619242391         1.586444669    
CA         4.277048062        -3.069443962        0.3365337515    
HA         4.089676829        -1.996183841        0.2796072710    
CB         5.689689957        -3.256831148        0.9041760704    
HB         5.755758761        -2.717390845         1.848844329    
HB         5.841487633        -4.315599470         1.121199258    
CG         6.813379407        -2.791989401        0.2641128365E-01
CD         7.713942717        -3.598873780       -0.5798096096    
HD         7.731137360        -4.682865495       -0.5003288115    
NE         8.618867274        -2.836240615        -1.291925001    
HE         9.407469973        -3.234143008        -1.793442231    
CE         8.334561512        -1.490795079        -1.196479986    
CZ         8.937355014       -0.3449536517        -1.736368583    
HZ         9.806666018       -0.4340976947        -2.374070360    
CH         8.403777773        0.9176005658        -1.426743639    
HH         8.860839650         1.814992974        -1.826894513    
CZ         7.280404169         1.014887192       -0.5856263381    
HZ         6.882650901         1.990566154       -0.3367048640    
CE         6.676020003       -0.1441955687       -0.5934394117E-01
HE         5.814294335       -0.5607979602E-01    0.5868551474    
CD         7.185696500        -1.428171635       -0.3497166713    
C          4.151967630        -3.640253089        -1.083838578    
O          4.046315249        -4.857156567        -1.260774409    
N          4.176445466        -2.769444896        -2.099051696    
H          4.211457392        -1.779395063        -1.873616293    
CA         3.949907983        -3.134416404        -3.512089608    
HA         3.845095264        -4.218239613        -3.580872451    
CB         2.617692869        -2.537462449        -4.007939236    
HB         2.676164441        -1.447905597        -3.998475570    
HB         2.448532103        -2.867343496        -5.033746407    
CG         1.419349266        -2.992437813        -3.161607949    
HG         1.433165854        -2.477037035        -2.197912926    
HG         1.505536618        -4.065018500        -2.969734425    
CD        0.9019257067E-01    -2.709878576        -3.880069787    
OE       -0.3173398869        -1.526735474        -3.969883941    
OE       -0.5741260350        -3.679533813        -4.323487324    
C          5.142563897        -2.803892449        -4.438075793    
O          4.977407401        -2.624462492        -5.647685434    
N          6.357080209        -2.702301866        -3.881311047    
H          6.435977760        -2.873054897        -2.886229734    
CA         7.599729250        -2.452121663        -4.634955266    
HA         8.450278019        -2.733788821        -4.016239463    
HA         7.610472444        -3.088001925        -5.520879506    
C          7.813573308       -0.9999561706        -5.093848407    
O          8.789164696       -0.7147806756        -5.793406233    
N          6.914427215       -0.8505707692E-01    -4.714430779    
H          6.172098628       -0.4123602365        -4.117000167    
CA         6.961514820         1.344400776        -5.053841990    
HA         8.003976221         1.658654362        -5.142114593    
CB         6.265765957         1.532876383        -6.416236715    
HB         6.763336480        0.9188745673        -7.167513525    
HB         5.227142081         1.206651260        -6.349820715    
CG         6.288394634         2.979938815        -6.882758762    
OD         5.320575878         3.716879365        -6.747536356    
ND         7.391551067         3.438741017        -7.432851860    
HD         7.413671900         4.399361449        -7.743409931    
HD         8.189723431         2.832585760        -7.556338526    
C          6.310118941         2.229360686        -3.969962599    
O          6.849298052         3.288072252        -3.633967172    
N          5.174130688         1.784696565        -3.409322975    
H          4.777810238        0.9270620562        -3.766685186    
CA         4.448599699         2.441635831        -2.307109974    
HA         5.159512961         3.039684328        -1.733144738    
CB         3.390523263         3.406160999        -2.884638579    
HB         3.035669161         4.054748377        -2.081672771    
HB         3.866040671         4.043700822        -3.632523728    
CG         2.173419648         2.706869493        -3.518002574    
HG         2.505310281         2.031783339        -4.308041750    
HG         1.650771953         2.129050480        -2.756033326    
CD         1.210866427         3.744576226        -4.114624981    
HD        0.9570713019         4.494349707        -3.362615817    
HD         1.717894280         4.250825375        -4.938180427    
CE       -0.7767562966E-01     3.110883926        -4.658838454    
HE        0.1822396684         2.256373333        -5.291198795    
HE       -0.5762905842         3.850876791        -5.292520425    
NZ        -1.008232631         2.691882792        -3.574911891    
HZ        -1.232762110         3.465424596        -2.963019086    
HZ       -0.6236097054         1.939653453        -3.007383119    
HZ        -1.877676109         2.350305746        -3.963839426    
C          3.833071012         1.434181538        -1.326256868    
O          3.740175120        0.2380031353        -1.621020263    
N          3.372641006         1.941450470       -0.1827822841    
H          3.492503687         2.931385274       -0.2834904164E-01
CA         2.521503102         1.210210310        0.7615847768    
HA         2.764145086        0.1507062378        0.6957167354    
CB         2.820773726         1.654239902         2.199425500    
HB         2.724339132         2.738991194         2.270239076    
HB         2.068268005         1.219234962         2.857701565    
CG         4.164427777         1.241466287         2.721465178    
CD         5.307423453         1.959452760         2.628839606    
HD         5.392530526         2.937437932         2.163606584    
NE         6.348307929         1.253825789         3.204001862    
HE         7.302265115         1.599204356         3.239940741    
CE         5.924472652        0.4048575428E-01     3.704297016    
CZ         6.581400563        -1.009181615         4.364786904    
HZ         7.643243890       -0.9488180159         4.562109077    
CH         5.841041809        -2.134599383         4.768090323    
HH         6.332283921        -2.953509742         5.280464903    
CZ         4.459351560        -2.194832522         4.507455441    
HZ         3.891542018        -3.061992622         4.822946285    
CE         3.812284895        -1.135658787         3.840334266    
HE         2.751835308        -1.188872390         3.644983990    
CD         4.526045185        0.7398330686E-02     3.417971230    
C          1.029758777         1.368492038        0.4177683530    
O         0.5836308822         2.444479429        0.7089607043E-02
N         0.2580000882        0.2973920255        0.6162375947    
H         0.7200123934       -0.5542896024        0.9217412001    
CA        -1.179530488        0.1983997132        0.3033496662    
HA        -1.610516973         1.197462050        0.2313811185    
CB        -1.375601602       -0.5107747783        -1.051283104    
HB       -0.9251601737        -1.503143601        -1.002310308    
CG        -2.841200529       -0.6521407135        -1.464752100    
HG        -3.331418335        0.3220485865        -1.450911046    
HG        -2.900709526        -1.069885087        -2.470451484    
HG        -3.360834763        -1.328050955       -0.7861158740    
OG       -0.7466063046        0.2168181775        -2.084599190    
HG       -0.6009322723       -0.4359853782        -2.813500128    
C         -1.912669153       -0.5688839893         1.407756341    
O         -1.462862061        -1.638371159         1.825465318    
N         -3.049089283       -0.5012342023E-01     1.878800897    
H         -3.373099153        0.8298222154         1.501726759    
CA        -3.902735409       -0.7164293229         2.871766618    
HA        -3.269381863        -1.226816693         3.597854204    
CB        -4.716063355        0.3372813671         3.633390339    
HB        -4.022965976         1.020326157         4.126860269    
HB        -5.296777816        0.9214896788         2.917394764    
CG        -5.653406121       -0.2054153806         4.670383965    
CD        -6.958523267       -0.5016427652         4.470860931    
HD        -7.487428890       -0.3802021032         3.528886483    
NE        -7.515213175       -0.9723649594         5.644976654    
HE        -8.490799491        -1.243227485         5.729456175    
CE        -6.592887186       -0.9963760973         6.668741750    
CZ        -6.667315531        -1.373871414         8.018389197    
HZ        -7.604179558        -1.719730498         8.436473316    
CH        -5.517702583        -1.277064256         8.822241399    
HH        -5.562069544        -1.547064968         9.871575927    
CZ        -4.310493782       -0.8199441365         8.262359699    
HZ        -3.427252439       -0.7367339946         8.885292589    
CE        -4.247124163       -0.4502650779         6.903922936    
HE        -3.317604053       -0.9044734380E-01     6.486202608    
CD        -5.385714278       -0.5203174929         6.072446740    
C         -4.813142732        -1.765845634         2.211453593    
O         -5.473073147        -1.475157808         1.207444154    
N         -4.857254986        -2.980021799         2.778077332    
H         -4.289506336        -3.129342153         3.607683691    
CA        -5.641134763        -4.131134627         2.283964024    
HA        -6.438923121        -3.766047064         1.633295839    
CB        -4.741692370        -5.072621198         1.454081939    
HB        -5.344091412        -5.913205148         1.104650217    
HB        -3.942863783        -5.464541540         2.086601447    
CG        -4.120782853        -4.377268763        0.2310877506    
HG        -3.400194035        -3.632134914        0.5699278270    
HG        -4.907292460        -3.875326002       -0.3344922989    
CD        -3.406640115        -5.369449383       -0.6946741968    
HD        -4.137446176        -6.061926829        -1.116872805    
HD        -2.663955045        -5.931820198       -0.1270458452    
CE        -2.712261551        -4.592775976        -1.819352297    
HE        -3.454812033        -3.977083791        -2.336355060    
HE        -1.971659936        -3.922994237        -1.371411288    
NZ        -2.044973570        -5.495243161        -2.791715323    
HZ        -1.368006087        -6.093457120        -2.338541354    
HZ        -2.712866546        -6.079742198        -3.275855688    
HZ        -1.546889241        -4.942164108        -3.492981648    
C         -6.328509687        -4.894773237         3.425067535    
O         -5.896738268        -4.853539687         4.578272678    
N         -7.394958500        -5.616091238         3.119648137    
HN        -7.726810868        -5.644364922         2.168838292    
HN        -7.860882970        -6.132205178         3.848530201    
   220
Energy=    -452.448268092695    
N         -4.778695289        -4.269444038         7.215347931    
H1        -5.007223650        -4.688114804         6.321560017    
H2        -5.186990995        -3.347088442         7.248586988    
H3        -5.187509684        -4.831334741         7.948238982    
CA        -3.306009008        -4.197426820         7.401064274    
HA        -3.104124462        -3.667779537         8.333391482    
CB        -2.694895915        -5.600531340         7.519960248    
HB        -2.832796362        -6.148679943         6.585474397    
HB        -1.625849837        -5.518496448         7.725613891    
OG        -3.323226967        -6.305350970         8.580169357    
HG        -2.882714865        -7.166794080         8.670497792    
C         -2.623996832        -3.431903158         6.266670865    
O         -3.140574932        -3.382898571         5.150182355    
N         -1.448007455        -2.848020998         6.521148436    
H         -1.065931533        -2.901858635         7.456872317    
CA       -0.5981287626        -2.242173223         5.482494728    
HA        -1.236503752        -1.734354205         4.756874751    
CB        0.3188917582        -1.178775419         6.102980407    
HB        0.8306221251        -1.599552012         6.970292195    
HB         1.084917743       -0.9126488716         5.374454496    
CG       -0.3729867676        0.9082168823E-01     6.494006495    
CD       -0.7188538642        0.4573448268         7.749397523    
HD       -0.5301365429       -0.1290927890         8.644444012    
NE        -1.356566626         1.684191824         7.715352942    
HE        -1.708382605         2.152215366         8.544957781    
CE        -1.451901698         2.172206506         6.428604569    
CZ        -2.002894083         3.341059561         5.881803639    
HZ        -2.479369335         4.070576979         6.522938454    
CH        -1.922144735         3.551797721         4.493957626    
HH        -2.339114551         4.450972294         4.055601805    
CZ        -1.291277432         2.596999062         3.675049364    
HZ        -1.222132855         2.770233664         2.608009625    
CE       -0.7472835212         1.423451543         4.234601372    
HE       -0.2617498862        0.6972599889         3.599219762    
CD       -0.8172520892         1.178342134         5.623960778    
C         0.2129226051        -3.298799503         4.713295671    
O         0.6550275276        -4.300352002         5.282530607    
N         0.4206447725        -3.056591002         3.416145149    
H        -0.1435553211E-03    -2.222903492         3.020237226    
CA         1.160670051        -3.926351871         2.480737356    
HA         1.778797553        -4.621674524         3.050669742    
CB        0.2069830547        -4.761061155         1.600569991    
HB        0.8090348686        -5.414519577        0.9680863481    
CG       -0.7437279374        -5.639090870         2.415669469    
HG        -1.453518401        -5.025357331         2.971488781    
HG        -1.292854053        -6.299785658         1.745176722    
HG       -0.1704669370        -6.250306358         3.113210174    
OG       -0.5915907138        -3.947849840        0.7654726804    
HG       -0.9430333580        -3.220748677         1.307466917    
C          2.096404901        -3.103440610         1.588723326    
O          1.774957189        -1.966281734         1.241107580    
N          3.247907204        -3.663457768         1.210106817    
H          3.451911621        -4.601841699         1.524446672    
CA         4.227358256        -3.031261511        0.3132647750    
HA         4.047679108        -1.955877809        0.2743358623    
CB         5.636666463        -3.240493072        0.8816418934    
HB         5.703827990        -2.716096695         1.834440754    
HB         5.776101411        -4.303757520         1.084629424    
CG         6.772606557        -2.776113629        0.1915236443E-01
CD         7.691010781        -3.583038262       -0.5597386769    
HD         7.712615484        -4.666133573       -0.4699451037    
NE         8.611084914        -2.821386735        -1.253214387    
HE         9.413807437        -3.219242937        -1.731827949    
CE         8.322393282        -1.476259497        -1.169111623    
CZ         8.940526439       -0.3309588348        -1.692423143    
HZ         9.830399312       -0.4204447474        -2.301054771    
CH         8.393873400        0.9313440223        -1.405849486    
HH         8.861936326         1.828310483        -1.793980682    
CZ         7.240547855         1.028749920       -0.6063783369    
HZ         6.828977794         2.004146317       -0.3793232615    
CE         6.623608548       -0.1297330039       -0.9360955096E-01
HE         5.740857464       -0.4098738139E-01    0.5233100826    
CD         7.147924746        -1.413314479       -0.3581825998    
C          4.101283249        -3.578053596        -1.116074811    
O          4.000217108        -4.791846260        -1.314990283    
N          4.120651333        -2.688842321        -2.114712482    
H          4.149074660        -1.702779030        -1.869921112    
CA         3.897677986        -3.026140614        -3.534786134    
HA         3.766128049        -4.105813203        -3.621288670    
CB         2.584359848        -2.388438354        -4.031732679    
HB         2.669481013        -1.300954033        -4.004004181    
HB         2.414289455        -2.697771244        -5.063760607    
CG         1.370545912        -2.828136713        -3.198670989    
HG         1.402477515        -2.343891277        -2.219452417    
HG         1.421013817        -3.908386284        -3.040013919    
CD        0.4875439231E-01    -2.477841191        -3.900010758    
OE       -0.3089595953        -1.276403930        -3.962377956    
OE       -0.6647153510        -3.410674566        -4.344924115    
C          5.109891325        -2.711059860        -4.440650884    
O          4.963525134        -2.490461383        -5.645679012    
N          6.320688930        -2.664519407        -3.868078932    
H          6.380816974        -2.864473702        -2.877151297    
CA         7.581826321        -2.431062635        -4.596247474    
HA         8.413226054        -2.765763728        -3.977819348    
HA         7.582162429        -3.034115157        -5.504884564    
C          7.852534309       -0.9716380155        -4.999428554    
O          8.864614136       -0.6906665851        -5.646809226    
N          6.960379688       -0.4610703052E-01    -4.629781260    
H          6.187658433       -0.3744122978        -4.073661853    
CA         7.049982204         1.391162253        -4.926806823    
HA         8.100039893         1.692055233        -4.934518158    
CB         6.450274757         1.619713398        -6.328697635    
HB         6.988305071         1.014511887        -7.058870768    
HB         5.405242152         1.307437663        -6.338283871    
CG         6.522582875         3.075047049        -6.763601749    
OD         5.552526643         3.818310604        -6.694747378    
ND         7.670133060         3.532697810        -7.215154219    
HD         7.725179264         4.498508425        -7.504738454    
HD         8.470591433         2.921124990        -7.285280458    
C          6.331393224         2.263256037        -3.873869968    
O          6.820648220         3.343574019        -3.530611156    
N          5.187865760         1.788756452        -3.354808656    
H          4.842716648        0.9085685061        -3.708759892    
CA         4.359282836         2.458838390        -2.336105098    
HA         4.994695451         3.135433522        -1.760400972    
CB         3.278462761         3.312385338        -3.033486954    
HB         2.759223257         3.910106869        -2.282163948    
HB         3.772091220         4.003487887        -3.719431278    
CG         2.236776557         2.489999551        -3.815359959    
HG         2.742252573         1.861501331        -4.549742067    
HG         1.686075775         1.852222341        -3.123508051    
CD         1.253476005         3.414263431        -4.550005144    
HD        0.7308862938         4.049293327        -3.831905948    
HD         1.821364803         4.059242570        -5.223199167    
CE        0.2338993507         2.631610128        -5.391076925    
HE        0.7699574342         1.908602963        -6.013688029    
HE       -0.2691742280         3.334946858        -6.061950305    
NZ       -0.7827250864         1.938047535        -4.555389455    
HZ        -1.322055094         2.597240071        -4.009256697    
HZ       -0.3567263509         1.279069541        -3.914747165    
HZ        -1.430254874         1.418450904        -5.134455407    
C          3.749110164         1.471505635        -1.331925892    
O          3.673881153        0.2674052341        -1.596620895    
N          3.281742937         2.000946566       -0.2010248357    
H          3.383160173         2.996949172       -0.7460183579E-01
CA         2.469032922         1.276448891        0.7830535058    
HA         2.704583715        0.2154813252        0.7144737270    
CB         2.824770816         1.727985681         2.205587791    
HB         2.756496726         2.815400047         2.267541935    
HB         2.082154589         1.319087211         2.891533217    
CG         4.172014224         1.287430471         2.693442558    
CD         5.326679936         1.982077415         2.573454253    
HD         5.420598097         2.957643367         2.104826002    
NE         6.365447533         1.257266722         3.128347118    
HE         7.326712907         1.583288525         3.141966600    
CE         5.928321880        0.5422296949E-01     3.642099182    
CZ         6.577872783        -1.005676064         4.293528050    
HZ         7.644444095       -0.9653620629         4.469187047    
CH         5.823996065        -2.114928984         4.716223465    
HH         6.309465545        -2.941395511         5.221907654    
CZ         4.436546074        -2.149654086         4.482712577    
HZ         3.858644471        -3.004864144         4.812167551    
CE         3.796741097        -1.080463619         3.824582159    
HE         2.731668932        -1.114322971         3.649955374    
CD         4.523926908        0.4753233994E-01     3.384566957    
C         0.9654963410         1.438931141        0.5028691973    
O         0.5035804246         2.526489232        0.1435107926    
N         0.2038118902        0.3602676492        0.7028473191    
H         0.6773521184       -0.4961688983        0.9754293544    
CA        -1.239107226        0.2611672609        0.4140828059    
HA        -1.673056585         1.259721793        0.3545239379    
CB        -1.455671722       -0.4399371272       -0.9415517528    
HB        -1.016187978        -1.437734310       -0.9003758348    
CG        -2.925805391       -0.5633157266        -1.345157457    
HG        -3.402043186        0.4179088317        -1.331542380    
HG        -2.997910321       -0.9835634149        -2.349047343    
HG        -3.450571397        -1.228626106       -0.6602708259    
OG       -0.8245690391        0.2835639008        -1.975086243    
HG       -0.6633696215       -0.3672932421        -2.700536677    
C         -1.955696252       -0.5160811321         1.521218937    
O         -1.502862883        -1.592500912         1.916787948    
N         -3.084621066       -0.2505919647E-02     2.014885953    
H         -3.411644744        0.8839153902         1.655989951    
CA        -3.930039062       -0.6885151703         3.001183707    
HA        -3.291013000        -1.217128038         3.709057394    
CB        -4.732638561        0.3493334554         3.795019244    
HB        -4.032700972         1.020881410         4.294652848    
HB        -5.321688440        0.9493819298         3.099219000    
CG        -5.656793104       -0.2161373874         4.831545467    
CD        -6.965590355       -0.5035529140         4.643769894    
HD        -7.507805864       -0.3567590354         3.713031942    
NE        -7.506347879        -1.002862376         5.813533191    
HE        -8.481386113        -1.273330848         5.905412502    
CE        -6.568896382        -1.056469476         6.822352029    
CZ        -6.624151532        -1.469764630         8.162383857    
HZ        -7.555619357        -1.824356531         8.585179932    
CH        -5.462274665        -1.397535032         8.951034151    
HH        -5.491643515        -1.695537501         9.993286792    
CZ        -4.262314486       -0.9284427549         8.385499984    
HZ        -3.369641994       -0.8641012241         8.997106499    
CE        -4.218185433       -0.5228330397         7.036585834    
HE        -3.293929524       -0.1543779231         6.614586966    
CD        -5.369327351       -0.5679864821         6.220807577    
C         -4.849117826        -1.719780400         2.324248912    
O         -5.529826263        -1.398649292         1.343673388    
N         -4.875627579        -2.953297864         2.848636788    
H         -4.292018913        -3.127905583         3.662170564    
CA        -5.660639294        -4.091758290         2.327234694    
HA        -6.469774825        -3.709455796         1.700920492    
CB        -4.768998144        -4.999739595         1.452440484    
HB        -5.373140463        -5.829772144         1.081484937    
HB        -3.960748475        -5.410849663         2.060212042    
CG        -4.166245061        -4.259801665        0.2464973299    
HG        -3.442906658        -3.525463206        0.6023924633    
HG        -4.961434286        -3.739732020       -0.2897958630    
CD        -3.462572271        -5.215902278       -0.7246706794    
HD        -4.198123755        -5.893359537        -1.162709744    
HD        -2.712329870        -5.798069866       -0.1876659679    
CE        -2.782703076        -4.397859467        -1.829149792    
HE        -3.531698408        -3.762168425        -2.311616901    
HE        -2.034609276        -3.746774660        -1.366324011    
NZ        -2.130754943        -5.263169189        -2.845122840    
HZ        -1.448565258        -5.879316264        -2.424863493    
HZ        -2.806643080        -5.828471748        -3.340948347    
HZ        -1.641797334        -4.685621876        -3.533061264    
C         -6.327897592        -4.897126004         3.451561434    
O         -5.883911106        -4.887247649         4.600841779    
N         -7.391177068        -5.618602109         3.135628990    
HN        -7.733433001        -5.620533131         2.188094977    
HN        -7.844174699        -6.161390896         3.853196404    
   220
Energy=    -454.473009584869    
N         -4.768796597        -4.382724770         7.184756126    
H1        -4.978895453        -4.792062094         6.282148593    
H2        -5.198179522        -3.470485081         7.228289170    
H3        -5.172126772        -4.965121498         7.904569394    
CA        -3.299988165        -4.280502757         7.386952762    