   220
 Energy=    -454.473009584869
N            -4.7687965970       -4.3827247700        7.1847561260
H1           -4.9788954530       -4.7920620940        6.2821485930
H2           -5.1981795220       -3.4704850810        7.2282891700
H3           -5.1721267720       -4.9651214980        7.9045693940
CA           -3.2999881650       -4.2805027570        7.3869527620
HA           -3.1193266350       -3.7583557790        8.3278218220
CB           -2.6591704010       -5.6712122120        7.4947986530
HB           -2.7750896440       -6.2102914990        6.5520870170
HB           -1.5944133990       -5.5682827480        7.7129298160
OG           -3.2827484720       -6.4032219620        8.5392663060
HG           -2.8242039720       -7.2558281500        8.6234981340
C            -2.6236334260       -3.4862290900        6.2690787460
O            -3.1316307580       -3.4322446850        5.1489483990
N            -1.4612260840       -2.8830776600        6.5405481620
H            -1.0858306160       -2.9402825200        7.4787668560
CA           -0.6128049486       -2.2549905930        5.5139180840
HA           -1.2520166490       -1.7327907010        4.7995022440
CB            0.3052706378       -1.2048209500        6.1549838500
HB            0.8130255804       -1.6410697320        7.0169727320
HB            1.0744191510       -0.9286243672        5.4335150900
CG           -0.3857169946        0.0593695792        6.5641653860
CD           -0.7401698600        0.4035020094        7.8234874200
HD           -0.5592188240       -0.1995597245        8.7090364630
NE           -1.3778617150        1.6306750780        7.8067615080
HE           -1.7361429210        2.0835628390        8.6419931520
CE           -1.4641867350        2.1414795760        6.5282583660
CZ           -2.0119060580        3.3197257830        5.9986735890
HZ           -2.4943342720        4.0368731420        6.6492553110
CH           -1.9195851510        3.5563596010        4.6157773550
HH           -2.3336359850        4.4632532540        4.1907354640
CZ           -1.2798503920        2.6180692270        3.7847960740
HZ           -1.2006302250        2.8122219550        2.7221220540
CE           -0.7391048788        1.4347478750        4.3267417480
HE           -0.2455063554        0.7221380507        3.6819074560
CD           -0.8220786341        1.1630851590        5.7106137630
C             0.1971410125       -3.2961937820        4.7233473780
O             0.6424012611       -4.3066451830        5.2742437880
N             0.3999327731       -3.0324109740        3.4295126630
H            -0.0226057078       -2.1934909960        3.0469596620
CA            1.1363973520       -3.8900728160        2.4807268130
HA            1.7444334200       -4.6021367050        3.0407081630
CB            0.1813852577       -4.7015070390        1.5803375920
HB            0.7823157507       -5.3535881310        0.9453461668
CG           -0.7877509637       -5.5791762560        2.3738232730
HG           -1.4928928370       -4.9645337390        2.9345354750
HG           -1.3412195230       -6.2206007650        1.6881865590
HG           -0.2284472101       -6.2098206630        3.0653590340
OG           -0.5991227548       -3.8692533920        0.7472937732
HG           -0.9521573402       -3.1474376110        1.2958424990
C             2.0860910250       -3.0611703270        1.6098223060
O             1.7691265080       -1.9228042150        1.2598628500
N             3.2434231860       -3.6231208730        1.2511712020
H             3.4391311040       -4.5618026090        1.5697667740
CA            4.2380061150       -2.9996070920        0.3659976847
HA            4.0597278670       -1.9244574730        0.3165103373
CB            5.6389151850       -3.2075496360        0.9551284306
HB            5.6966811030       -2.6689611880        1.9000745370
HB            5.7693833700       -4.2683131400        1.1763228870
CG            6.7892150030       -2.7634745440        0.1003645448
CD            7.7321785200       -3.5811927500       -0.4211012474
HD            7.7661159350       -4.6589589170       -0.2838369430
NE            8.6576280170       -2.8374733510       -1.1267544170
HE            9.4748418460       -3.2447114930       -1.5718338330
CE            8.3497046230       -1.4942048340       -1.1073388440
CZ            8.9648125500       -0.3640822409       -1.6660540730
HZ            9.8711811330       -0.4670743674       -2.2476298970
CH            8.3924693980        0.9011305575       -1.4517324260
HH            8.8573529800        1.7868396690       -1.8684747840
CZ            7.2167723380        1.0161349230       -0.6881209311
HZ            6.7844623710        1.9940751730       -0.5174104040
CE            6.6040732600       -0.1275221230       -0.1383932169
HE            5.7046432560       -0.0245451914        0.4515244398
CD            7.1542695830       -1.4132630430       -0.3292867004
C             4.1328927720       -3.5576204590       -1.0601038400
O             4.0303579170       -4.7721648640       -1.2536217720
N             4.1700384680       -2.6739988310       -2.0618023200
H             4.1906005510       -1.6872982120       -1.8183652810
CA            3.9372787890       -3.0111790070       -3.4792782550
HA            3.7373793650       -4.0808676030       -3.5589328100
CB            2.6721079130       -2.2898825690       -3.9849822500
HB            2.8384650000       -1.2115869540       -3.9792819430
HB            2.4745773640       -2.6045551610       -5.0104704190
CG            1.4333798590       -2.6197353060       -3.1380086620
HG            1.5266519840       -2.1600780980       -2.1510761370
HG            1.3743213680       -3.7024898540       -3.0007397730
CD            0.1488837398       -2.1159574100       -3.8093170690
OE           -0.0755375997       -0.8813879894       -3.8400986490
OE           -0.6629796993       -2.9555111810       -4.2699805560
C             5.1692775680       -2.7697975710       -4.3806273440
O             5.0432090100       -2.6163109400       -5.5982777990
N             6.3717394520       -2.7025471960       -3.7923743760
H             6.4166959180       -2.8589375470       -2.7928994830
CA            7.6399834050       -2.4670202980       -4.5069481050
HA            8.4675752660       -2.7643876390       -3.8647092140
HA            7.6679047350       -3.0960811250       -5.3973215370
C             7.8826727650       -1.0127255400       -4.9465629500
O             8.8843851010       -0.7283522534       -5.6083396240
N             6.9736524470       -0.0965086111       -4.5940315020
H             6.2168430810       -0.4258231169       -4.0172254360
CA            7.0252138830        1.3337622300       -4.9297060600
HA            8.0663710810        1.6641300410       -4.9385817700
CB            6.4284206190        1.5066703930       -6.3409819070
HB            6.9907364280        0.9006920832       -7.0519358670
HB            5.3941075360        1.1604504960       -6.3490940560
CG            6.4564287760        2.9518026650       -6.8134444180
OD            5.4619385790        3.6640698660       -6.7710053300
ND            7.5918747730        3.4351528180       -7.2687582770
HD            7.6174736610        4.3943955980       -7.5832054500
HD            8.4125032290        2.8487353970       -7.3172553350
C             6.2719724460        2.2128222930       -3.9066810890
O             6.7266760130        3.3159379980       -3.5896456400
N             5.1366002980        1.7206732000       -3.3852372060
H             4.8212209580        0.8204330477       -3.7152981240
CA            4.2664441420        2.4053885300       -2.4116218670
HA            4.8656485670        3.1365331830       -1.8643910370
CB            3.1620557270        3.1791851320       -3.1626109550
HB            2.5649371080        3.7364457060       -2.4384778960
HB            3.6438485940        3.9071418350       -3.8181416100
CG            2.2199352670        2.3000347020       -4.0095642070
HG            2.8024524010        1.7342720190       -4.7376826000
HG            1.6860345020        1.6036874750       -3.3621760570
CD            1.2094938180        3.1804456160       -4.7620341000
HD            0.5679488046        3.6989400520       -4.0468939430
HD            1.7619776420        3.9349621180       -5.3251709280
CE            0.3446190970        2.4002059120       -5.7638149300
HE            0.9953815098        1.8132528540       -6.4190012890
HE           -0.1805696355        3.1285137960       -6.3893936360
NZ           -0.6543871168        1.5180094560       -5.1050698270
HZ           -1.2058677970        2.0238404580       -4.4249753960
HZ           -0.2177754463        0.7236595609       -4.6337773080
HZ           -1.2916483690        1.1275004310       -5.7863875330
C             3.6844823480        1.4509180530       -1.3606179960
O             3.6276593300        0.2365856040       -1.5748227770
N             3.2308469290        2.0179483150       -0.2416956376
H             3.3188045220        3.0197607540       -0.1581147763
CA            2.4523393140        1.3239783190        0.7914940836
HA            2.6689459700        0.2585696786        0.7363442322
CB            2.8677450370        1.8010407890        2.1893143470
HB            2.8423371000        2.8915820480        2.2217186680
HB            2.1290604670        1.4417928600        2.9069900170
CG            4.2085824690        1.3225608380        2.6573954100
CD            5.3832583390        1.9758665750        2.5051463580
HD            5.5013871130        2.9386729770        2.0160308680
NE            6.4058420270        1.2295377560        3.0617031020
HE            7.3772028330        1.5242286420        3.0548796040
CE            5.9368807880        0.0545242603        3.6111749950
CZ            6.5599409260       -1.0085253840        4.2831052550
HZ            7.6291026920       -0.9975837530        4.4468072930
CH            5.7762602480       -2.0824754200        4.7414958420
HH            6.2410937280       -2.9108839480        5.2631229830
CZ            4.3861540200       -2.0802337670        4.5211929290
HZ            3.7856650310       -2.9090364440        4.8767042860
CE            3.7727509110       -1.0079366280        3.8431698420
HE            2.7052316860       -1.0132521990        3.6790654190
CD            4.5299978620        0.0863374905        3.3695613240
C             0.9423142981        1.5086208710        0.5718735832
O             0.4814815529        2.6152303360        0.2742486591
N             0.1749431853        0.4305066829        0.7565736111
H             0.6441484734       -0.4405957285        0.9881444731
CA           -1.2780562800        0.3659150952        0.5070519937
HA           -1.6977239560        1.3722200490        0.5202515330
CB           -1.5419097240       -0.2424962205       -0.8851981884
HB           -1.0734557330       -1.2267142970       -0.9385091575
CG           -3.0246537620       -0.3811622891       -1.2363465690
HG           -3.5276815920        0.5804915755       -1.1270207240
HG           -3.1278009920       -0.7253183967       -2.2662047690
HG           -3.4999426510       -1.1133452680       -0.5846796160
OG           -0.9779729571        0.5809815417       -1.8824040880
HG           -0.6564952665       -0.0201648513       -2.5929340670
C            -1.9787668720       -0.4592607898        1.5894307340
O            -1.5203773560       -1.5502673280        1.9350594200
N            -3.1009809610        0.0341625037        2.1183180770
H            -3.4304337300        0.9348263286        1.7993408380
CA           -3.9362985280       -0.6870477915        3.0878058480
HA           -3.2902301850       -1.2366708960        3.7725628370
CB           -4.7354498540        0.3229139721        3.9205432030
HB           -4.0331975280        0.9776799050        4.4389600430
HB           -5.3280090920        0.9459699171        3.2483255220
CG           -5.6553202630       -0.2768533542        4.9414742580
CD           -6.9607049020       -0.5734803013        4.7443403170
HD           -7.5028605370       -0.4101710199        3.8163101390
NE           -7.4979750220       -1.1070449000        5.9004878790
HE           -8.4701806930       -1.3902647220        5.9837993340
CE           -6.5615926420       -1.1753479190        6.9093666790
CZ           -6.6139930180       -1.6235655580        8.2382044790
HZ           -7.5418082560       -1.9998731760        8.6501429490
CH           -5.4540942490       -1.5583491290        9.0303498050
HH           -5.4813280060       -1.8839301000       10.0643606200
CZ           -4.2591671680       -1.0598000470        8.4795691680
HZ           -3.3683672610       -1.0004655110        9.0943976140
CE           -4.2178266420       -0.6191124671        7.1416282990
HE           -3.2975809070       -0.2285687410        6.7307900990
CD           -5.3667514880       -0.6582177829        6.3225620950
C            -4.8584876340       -1.6977687060        2.3844895180
O            -5.5536730390       -1.3439892490        1.4255704620
N            -4.8706521280       -2.9507397200        2.8615356280
H            -4.2781099970       -3.1518170960        3.6624068100
CA           -5.6489895560       -4.0755635040        2.3013131190
HA           -6.4689538080       -3.6764058820        1.7000957460
CB           -4.7570914350       -4.9358805860        1.3792581600
HB           -5.3580500510       -5.7508416030        0.9716037626
HB           -3.9431795500       -5.3704064310        1.9624568070
CG           -4.1653378960       -4.1341343520        0.2079695715
HG           -3.4482998920       -3.4108787590        0.5974523295
HG           -4.9673654080       -3.5962803750       -0.2998516568
CD           -3.4531837390       -5.0306380040       -0.8123474263
HD           -4.1818172260       -5.6900741810       -1.2877793570
HD           -2.6966492490       -5.6332094690       -0.3073922001
CE           -2.7827875730       -4.1422836830       -1.8673787770
HE           -3.5399757000       -3.4919329600       -2.3163888590
HE           -2.0465368420       -3.5066678490       -1.3657481480
NZ           -2.1127490260       -4.9368999350       -2.9279307900
HZ           -1.4247529420       -5.5675206150       -2.5398345920
HZ           -2.7774832350       -5.4803069130       -3.4618690230
HZ           -1.6274234840       -4.3109330110       -3.5750114310
C            -6.2955786130       -4.9346093190        3.3977967890
O            -5.8464485390       -4.9591412140        4.5449299740
N            -7.3475564390       -5.6626791880        3.0599068560
HN           -7.6945141460       -5.6354120610        2.1144764790
HN           -7.7871605370       -6.2399056700        3.7586819480
   220
 Energy=    -452.448268092695
N            -4.7786952890       -4.2694440380        7.2153479310
H1           -5.0072236500       -4.6881148040        6.3215600170
H2           -5.1869909950       -3.3470884420        7.2485869880
H3           -5.1875096840       -4.8313347410        7.9482389820
CA           -3.3060090080       -4.1974268200        7.4010642740
HA           -3.1041244620       -3.6677795370        8.3333914820
CB           -2.6948959150       -5.6005313400        7.5199602480
HB           -2.8327963620       -6.1486799430        6.5854743970
HB           -1.6258498370       -5.5184964480        7.7256138910
OG           -3.3232269670       -6.3053509700        8.5801693570
HG           -2.8827148650       -7.1667940800        8.6704977920
C            -2.6239968320       -3.4319031580        6.2666708650
O            -3.1405749320       -3.3828985710        5.1501823550
N            -1.4480074550       -2.8480209980        6.5211484360
H            -1.0659315330       -2.9018586350        7.4568723170
CA           -0.5981287626       -2.2421732230        5.4824947280
HA           -1.2365037520       -1.7343542050        4.7568747510
CB            0.3188917582       -1.1787754190        6.1029804070
HB            0.8306221251       -1.5995520120        6.9702921950
HB            1.0849177430       -0.9126488716        5.3744544960
CG           -0.3729867676        0.0908216882        6.4940064950
CD           -0.7188538642        0.4573448268        7.7493975230
HD           -0.5301365429       -0.1290927890        8.6444440120
NE           -1.3565666260        1.6841918240        7.7153529420
HE           -1.7083826050        2.1522153660        8.5449577810
CE           -1.4519016980        2.1722065060        6.4286045690
CZ           -2.0028940830        3.3410595610        5.8818036390
HZ           -2.4793693350        4.0705769790        6.5229384540
CH           -1.9221447350        3.5517977210        4.4939576260
HH           -2.3391145510        4.4509722940        4.0556018050
CZ           -1.2912774320        2.5969990620        3.6750493640
HZ           -1.2221328550        2.7702336640        2.6080096250
CE           -0.7472835212        1.4234515430        4.2346013720
HE           -0.2617498862        0.6972599889        3.5992197620
CD           -0.8172520892        1.1783421340        5.6239607780
C             0.2129226051       -3.2987995030        4.7132956710
O             0.6550275276       -4.3003520020        5.2825306070
N             0.4206447725       -3.0565910020        3.4161451490
H            -0.0001435553       -2.2229034920        3.0202372260
CA            1.1606700510       -3.9263518710        2.4807373560
HA            1.7787975530       -4.6216745240        3.0506697420
CB            0.2069830547       -4.7610611550        1.6005699910
HB            0.8090348686       -5.4145195770        0.9680863481
CG           -0.7437279374       -5.6390908700        2.4156694690
HG           -1.4535184010       -5.0253573310        2.9714887810
HG           -1.2928540530       -6.2997856580        1.7451767220
HG           -0.1704669370       -6.2503063580        3.1132101740
OG           -0.5915907138       -3.9478498400        0.7654726804
HG           -0.9430333580       -3.2207486770        1.3074669170
C             2.0964049010       -3.1034406100        1.5887233260
O             1.7749571890       -1.9662817340        1.2411075800
N             3.2479072040       -3.6634577680        1.2101068170
H             3.4519116210       -4.6018416990        1.5244466720
CA            4.2273582560       -3.0312615110        0.3132647750
HA            4.0476791080       -1.9558778090        0.2743358623
CB            5.6366664630       -3.2404930720        0.8816418934
HB            5.7038279900       -2.7160966950        1.8344407540
HB            5.7761014110       -4.3037575200        1.0846294240
CG            6.7726065570       -2.7761136290        0.0191523644
CD            7.6910107810       -3.5830382620       -0.5597386769
HD            7.7126154840       -4.6661335730       -0.4699451037
NE            8.6110849140       -2.8213867350       -1.2532143870
HE            9.4138074370       -3.2192429370       -1.7318279490
CE            8.3223932820       -1.4762594970       -1.1691116230
CZ            8.9405264390       -0.3309588348       -1.6924231430
HZ            9.8303993120       -0.4204447474       -2.3010547710
CH            8.3938734000        0.9313440223       -1.4058494860
HH            8.8619363260        1.8283104830       -1.7939806820
CZ            7.2405478550        1.0287499200       -0.6063783369
HZ            6.8289777940        2.0041463170       -0.3793232615
CE            6.6236085480       -0.1297330039       -0.0936095510
HE            5.7408574640       -0.0409873814        0.5233100826
CD            7.1479247460       -1.4133144790       -0.3581825998
C             4.1012832490       -3.5780535960       -1.1160748110
O             4.0002171080       -4.7918462600       -1.3149902830
N             4.1206513330       -2.6888423210       -2.1147124820
H             4.1490746600       -1.7027790300       -1.8699211120
CA            3.8976779860       -3.0261406140       -3.5347861340
HA            3.7661280490       -4.1058132030       -3.6212886700
CB            2.5843598480       -2.3884383540       -4.0317326790
HB            2.6694810130       -1.3009540330       -4.0040041810
HB            2.4142894550       -2.6977712440       -5.0637606070
CG            1.3705459120       -2.8281367130       -3.1986709890
HG            1.4024775150       -2.3438912770       -2.2194524170
HG            1.4210138170       -3.9083862840       -3.0400139190
CD            0.0487543923       -2.4778411910       -3.9000107580
OE           -0.3089595953       -1.2764039300       -3.9623779560
OE           -0.6647153510       -3.4106745660       -4.3449241150
C             5.1098913250       -2.7110598600       -4.4406508840
O             4.9635251340       -2.4904613830       -5.6456790120
N             6.3206889300       -2.6645194070       -3.8680789320
H             6.3808169740       -2.8644737020       -2.8771512970
CA            7.5818263210       -2.4310626350       -4.5962474740
HA            8.4132260540       -2.7657637280       -3.9778193480
HA            7.5821624290       -3.0341151570       -5.5048845640
C             7.8525343090       -0.9716380155       -4.9994285540
O             8.8646141360       -0.6906665851       -5.6468092260
N             6.9603796880       -0.0461070305       -4.6297812600
H             6.1876584330       -0.3744122978       -4.0736618530
CA            7.0499822040        1.3911622530       -4.9268068230
HA            8.1000398930        1.6920552330       -4.9345181580
CB            6.4502747570        1.6197133980       -6.3286976350
HB            6.9883050710        1.0145118870       -7.0588707680
HB            5.4052421520        1.3074376630       -6.3382838710
CG            6.5225828750        3.0750470490       -6.7636017490
OD            5.5525266430        3.8183106040       -6.6947473780
ND            7.6701330600        3.5326978100       -7.2151542190
HD            7.7251792640        4.4985084250       -7.5047384540
HD            8.4705914330        2.9211249900       -7.2852804580
C             6.3313932240        2.2632560370       -3.8738699680
O             6.8206482200        3.3435740190       -3.5306111560
N             5.1878657600        1.7887564520       -3.3548086560
H             4.8427166480        0.9085685061       -3.7087598920
CA            4.3592828360        2.4588383900       -2.3361050980
HA            4.9946954510        3.1354335220       -1.7604009720
CB            3.2784627610        3.3123853380       -3.0334869540
HB            2.7592232570        3.9101068690       -2.2821639480
HB            3.7720912200        4.0034878870       -3.7194312780
CG            2.2367765570        2.4899995510       -3.8153599590
HG            2.7422525730        1.8615013310       -4.5497420670
HG            1.6860757750        1.8522223410       -3.1235080510
CD            1.2534760050        3.4142634310       -4.5500051440
HD            0.7308862938        4.0492933270       -3.8319059480
HD            1.8213648030        4.0592425700       -5.2231991670
CE            0.2338993507        2.6316101280       -5.3910769250
HE            0.7699574342        1.9086029630       -6.0136880290
HE           -0.2691742280        3.3349468580       -6.0619503050
NZ           -0.7827250864        1.9380475350       -4.5553894550
HZ           -1.3220550940        2.5972400710       -4.0092566970
HZ           -0.3567263509        1.2790695410       -3.9147471650
HZ           -1.4302548740        1.4184509040       -5.1344554070
C             3.7491101640        1.4715056350       -1.3319258920
O             3.6738811530        0.2674052341       -1.5966208950
N             3.2817429370        2.0009465660       -0.2010248357
H             3.3831601730        2.9969491720       -0.0746018358
CA            2.4690329220        1.2764488910        0.7830535058
HA            2.7045837150        0.2154813252        0.7144737270
CB            2.8247708160        1.7279856810        2.2055877910
HB            2.7564967260        2.8154000470        2.2675419350
HB            2.0821545890        1.3190872110        2.8915332170
CG            4.1720142240        1.2874304710        2.6934425580
CD            5.3266799360        1.9820774150        2.5734542530
HD            5.4205980970        2.9576433670        2.1048260020
NE            6.3654475330        1.2572667220        3.1283471180
HE            7.3267129070        1.5832885250        3.1419666000
CE            5.9283218800        0.0542229695        3.6420991820
CZ            6.5778727830       -1.0056760640        4.2935280500
HZ            7.6444440950       -0.9653620629        4.4691870470
CH            5.8239960650       -2.1149289840        4.7162234650
HH            6.3094655450       -2.9413955110        5.2219076540
CZ            4.4365460740       -2.1496540860        4.4827125770
HZ            3.8586444710       -3.0048641440        4.8121675510
CE            3.7967410970       -1.0804636190        3.8245821590
HE            2.7316689320       -1.1143229710        3.6499553740
CD            4.5239269080        0.0475323399        3.3845669570
C             0.9654963410        1.4389311410        0.5028691973
O             0.5035804246        2.5264892320        0.1435107926
N             0.2038118902        0.3602676492        0.7028473191
H             0.6773521184       -0.4961688983        0.9754293544
CA           -1.2391072260        0.2611672609        0.4140828059
HA           -1.6730565850        1.2597217930        0.3545239379
CB           -1.4556717220       -0.4399371272       -0.9415517528
HB           -1.0161879780       -1.4377343100       -0.9003758348
CG           -2.9258053910       -0.5633157266       -1.3451574570
HG           -3.4020431860        0.4179088317       -1.3315423800
HG           -2.9979103210       -0.9835634149       -2.3490473430
HG           -3.4505713970       -1.2286261060       -0.6602708259
OG           -0.8245690391        0.2835639008       -1.9750862430
HG           -0.6633696215       -0.3672932421       -2.7005366770
C            -1.9556962520       -0.5160811321        1.5212189370
O            -1.5028628830       -1.5925009120        1.9167879480
N            -3.0846210660       -0.0025059196        2.0148859530
H            -3.4116447440        0.8839153902        1.6559899510
CA           -3.9300390620       -0.6885151703        3.0011837070
HA           -3.2910130000       -1.2171280380        3.7090573940
CB           -4.7326385610        0.3493334554        3.7950192440
HB           -4.0327009720        1.0208814100        4.2946528480
HB           -5.3216884400        0.9493819298        3.0992190000
CG           -5.6567931040       -0.2161373874        4.8315454670
CD           -6.9655903550       -0.5035529140        4.6437698940
HD           -7.5078058640       -0.3567590354        3.7130319420
NE           -7.5063478790       -1.0028623760        5.8135331910
HE           -8.4813861130       -1.2733308480        5.9054125020
CE           -6.5688963820       -1.0564694760        6.8223520290
CZ           -6.6241515320       -1.4697646300        8.1623838570
HZ           -7.5556193570       -1.8243565310        8.5851799320
CH           -5.4622746650       -1.3975350320        8.9510341510
HH           -5.4916435150       -1.6955375010        9.9932867920
CZ           -4.2623144860       -0.9284427549        8.3854999840
HZ           -3.3696419940       -0.8641012241        8.9971064990
CE           -4.2181854330       -0.5228330397        7.0365858340
HE           -3.2939295240       -0.1543779231        6.6145869660
CD           -5.3693273510       -0.5679864821        6.2208075770
C            -4.8491178260       -1.7197804000        2.3242489120
O            -5.5298262630       -1.3986492920        1.3436733880
N            -4.8756275790       -2.9532978640        2.8486367880
H            -4.2920189130       -3.1279055830        3.6621705640
CA           -5.6606392940       -4.0917582900        2.3272346940
HA           -6.4697748250       -3.7094557960        1.7009204920
CB           -4.7689981440       -4.9997395950        1.4524404840
HB           -5.3731404630       -5.8297721440        1.0814849370
HB           -3.9607484750       -5.4108496630        2.0602120420
CG           -4.1662450610       -4.2598016650        0.2464973299
HG           -3.4429066580       -3.5254632060        0.6023924633
HG           -4.9614342860       -3.7397320200       -0.2897958630
CD           -3.4625722710       -5.2159022780       -0.7246706794
HD           -4.1981237550       -5.8933595370       -1.1627097440
HD           -2.7123298700       -5.7980698660       -0.1876659679
CE           -2.7827030760       -4.3978594670       -1.8291497920
HE           -3.5316984080       -3.7621684250       -2.3116169010
HE           -2.0346092760       -3.7467746600       -1.3663240110
NZ           -2.1307549430       -5.2631691890       -2.8451228400
HZ           -1.4485652580       -5.8793162640       -2.4248634930
HZ           -2.8066430800       -5.8284717480       -3.3409483470
HZ           -1.6417973340       -4.6856218760       -3.5330612640
C            -6.3278975920       -4.8971260040        3.4515614340
O            -5.8839111060       -4.8872476490        4.6008417790
N            -7.3911770680       -5.6186021090        3.1356289900
HN           -7.7334330010       -5.6205331310        2.1880949770
HN           -7.8441746990       -6.1613908960        3.8531964040
   220
 Energy=    -453.178133127083
N            -4.7982621770       -4.1891479230        7.1823863020
H1           -5.0215889600       -4.6275847270        6.2968084020
H2           -5.2062954740       -3.2661216980        7.1923109140
H3           -5.2119202520       -4.7342644060        7.9251633780
CA           -3.3267443760       -4.1134726500        7.3755876330
HA           -3.1304687580       -3.5627841320        8.2968584590