    24
Energy=    -193.671270772555    
T4        -1.190726393        0.6644754942        -1.635406186    
T4        -1.871229197         1.132511034        -2.119235194    
T4        -1.426622681        0.7819456608       -0.7151966767    
T4        -1.308036533        0.7394272887        -1.579544217    
T4        -1.111257277        -1.800428413       -0.1795322887    
T4        -1.444595050        -1.190578828        0.4786479697    
T4        -1.103689692        -1.295422127       -0.9926394295    
T4        -1.152959792        -1.657713411       -0.1993647988    
T4        -1.578755521        0.6751336366         1.103521139    
T4        -1.999118292         1.107762611         1.846729825    
T4       -0.6409826807        0.7583249137         1.276417501    
T4        -1.512520790        0.7411648521         1.220793638    
T4         1.444222220        -1.866788321        0.7336204112    
T4         1.641909513        -2.734345027         1.086461644    
T4        0.5622835175        -1.950409002        0.3710965551    
T4         1.356629784        -1.988550502        0.7323809186    
T4         1.087553253        0.7903573902         1.337847752    
T4         1.348095117       -0.1258301425         1.243242352    
T4         1.317386521         1.192923172        0.5003817530    
T4         1.150327186        0.7246076093         1.218531368    
T4         1.389094758         1.559405449        -1.275975448    
T4         1.975952931        0.9718831275        -1.752049862    
T4        0.5099415654         1.270047217        -1.520092872    
T4         1.351677469         1.447154159        -1.368168693    
    24
Energy=    -193.671029852651    
T4        -1.192328639        0.6651833110        -1.636573025    
T4        -1.873614187         1.132862523        -2.119644445    
T4        -1.427269939        0.7825187673       -0.7161020498    
T4        -1.309616730        0.7400722467        -1.580580605    
T4        -1.110432756        -1.799708688       -0.1797412072    
T4        -1.443308205        -1.189237461        0.4780966574    
T4        -1.103468335        -1.295480985       -0.9933367826    
T4        -1.152153300        -1.657013777       -0.1996800734    
T4        -1.577858125        0.6758660997         1.102659629    
T4        -1.998368174         1.107633265         1.846286050    
T4       -0.6401168497        0.7590179107         1.275746071    
T4        -1.511646288        0.7417819411         1.220009935    
T4         1.444011325        -1.867153904        0.7363852870    
T4         1.642737033        -2.735964048         1.085539790    
T4        0.5624925906        -1.950508154        0.3727802402    
T4         1.356605580        -1.989042434        0.7345354430    
T4         1.088316151        0.7906737951         1.338137854    
T4         1.348610994       -0.1257050328         1.244712598    
T4         1.317838441         1.191996241        0.4999901028    
T4         1.151018654        0.7247403642         1.218885270    
T4         1.388419638         1.557361344        -1.276429079    
T4         1.974817536        0.9713319789        -1.754904709    
T4        0.5090358297         1.269280056        -1.521225177    
T4         1.350913907         1.445464634        -1.369016587    
    24
Energy=    -193.669948105960    
T4        -1.194393204        0.6666263626        -1.635926086    
T4        -1.874951107         1.135726435        -2.118645366    
T4        -1.429030542        0.7838193152       -0.7153594286    
T4        -1.311549237        0.7416789433        -1.579876339    
T4        -1.108178197        -1.798658009       -0.1824893764    
T4        -1.442028042        -1.189771878        0.4763230407    
T4        -1.102768343        -1.293361584       -0.9954334681    
T4        -1.150222478        -1.656029199       -0.2022200903    
T4        -1.577906761        0.6748744814         1.103429933    
T4        -1.998767138         1.105049667         1.847780450    
T4       -0.6402287980        0.7587817254         1.276494811    
T4        -1.511747875        0.7406832348         1.220870172    
T4         1.444781694        -1.867103909        0.7381935177    
T4         1.644335518        -2.737846380         1.082021471    
T4        0.5640500875        -1.949540292        0.3724778907    
T4         1.357582720        -1.989122302        0.7353916314    
T4         1.088226490        0.7916824698         1.338510935    
T4         1.348979652       -0.1246467638         1.245880679    
T4         1.317020706         1.192263063        0.4998094177    
T4         1.150894461        0.7256604213         1.219289232    
T4         1.387791834         1.555228573        -1.277501981    
T4         1.972202266        0.9614998322        -1.748864336    
T4        0.5074642534         1.268923766        -1.520986579    
T4         1.349910868         1.442573661        -1.369011016    
    24
Energy=    -193.668659348439    
T4        -1.194864862        0.6682008825        -1.635660902    
T4        -1.874228093         1.139326674        -2.118090097    
T4        -1.430030926        0.7841755271       -0.7150748685    
T4        -1.311935645        0.7433568216        -1.579571540    
T4        -1.107140105        -1.798969349       -0.1833583561    
T4        -1.441667734        -1.191680110        0.4765832214    
T4        -1.101348219        -1.291852054       -0.9951651949    
T4        -1.149222246        -1.656311868       -0.2027989418    
T4        -1.579275893        0.6738758295         1.105179301    
T4        -1.999400470         1.103136269         1.850472972    
T4       -0.6414228048        0.7578796017         1.277245542    
T4        -1.513000397        0.7395798410         1.222612438    
T4         1.445461796        -1.866315508        0.7388712508    
T4         1.647035400        -2.737384570         1.080687886    
T4        0.5649601089        -1.949973840        0.3728795802    
T4         1.358550810        -1.988532133        0.7357765546    
T4         1.087395113        0.7929604884         1.337409802    
T4         1.348678915       -0.1233089439         1.245687710    
T4         1.315900696         1.192828065        0.4982894533    
T4         1.150094063        0.7268548205         1.218250739    
T4         1.388641864         1.553200982        -1.278547093    
T4         1.971749547        0.9546482952        -1.745400336    
T4        0.5077151795         1.268248258        -1.521450287    
T4         1.350517439         1.440101630        -1.369404480    
    24
Energy=    -193.667133453997    
T4        -1.194571690        0.6699258133        -1.632498283    
T4        -1.872868797         1.142877441        -2.114641034    
T4        -1.430614514        0.7841608486       -0.7119191274    
T4        -1.311618233        0.7450927905        -1.576373134    
T4        -1.106785010        -1.799273008       -0.1848113210    
T4        -1.442419026        -1.194204205        0.4766063921    
T4        -1.100412874        -1.289681679       -0.9950630803    
T4        -1.148934503        -1.656583063       -0.2038638746    
T4        -1.580204248        0.6721351756         1.106892646    
T4        -1.999152209         1.099934472         1.853687268    
T4       -0.6420599899        0.7574529599         1.276710393    
T4        -1.513740858        0.7378203526         1.224230088    
T4         1.443691634        -1.865720314        0.7431803623    
T4         1.646060177        -2.737000455         1.083987830    
T4        0.5640783347        -1.950283728        0.3752655443    
T4         1.356996134        -1.988079821        0.7397102944    
T4         1.086771020        0.7944428764         1.334150008    
T4         1.348455528       -0.1219006787         1.244330482    
T4         1.316709819         1.193064804        0.4948285275    
T4         1.149704735        0.7281682619         1.215208749    
T4         1.391243643         1.551516184        -1.283108050    
T4         1.972125794        0.9525503080        -1.752200414    
T4        0.5092003616         1.267898649        -1.523508932    
T4         1.352691385         1.438534859        -1.373931745    
    24
Energy=    -193.665778874117    
T4        -1.194228814        0.6709122521        -1.630841990    
T4        -1.871948042         1.145070998        -2.112611614    
T4        -1.430365091        0.7843606302       -0.7101895238    
T4        -1.311213344        0.7461330534        -1.574659691    
T4        -1.106693398        -1.799398457       -0.1855686897    
T4        -1.443165116        -1.195753390        0.4767237350    
T4        -1.100613996        -1.288492061       -0.9949941253    
T4        -1.148987601        -1.656722423       -0.2044034903    
T4        -1.581399433        0.6706645030         1.108551732    
T4        -2.000141741         1.097454867         1.856038658    
T4       -0.6431948223        0.7570402002         1.277499025    
T4        -1.514901991        0.7363559501         1.225866369    
T4         1.443115974        -1.864134731        0.7435436423    
T4         1.645990373        -2.735688090         1.083350295    
T4        0.5638428978        -1.948972633        0.3748795305    
T4         1.356528783        -1.986564351        0.7398495394    
T4         1.086155168        0.7960979881         1.333046216    
T4         1.347903816       -0.1203576762         1.244567401    
T4         1.317588826         1.193884904        0.4937394360    
T4         1.149288453        0.7297021306         1.214278466    
T4         1.393228398         1.548972954        -1.285105805    
T4         1.972358817        0.9485296457        -1.754475203    
T4        0.5103259799         1.266386828        -1.523559661    
T4         1.354341917         1.435934533        -1.375715721    
    24
Energy=    -193.663239373416    
T4        -1.193646511        0.6713155680        -1.628755667    
T4        -1.870303434         1.146978234        -2.110535988    
T4        -1.429987958        0.7846254147       -0.7081387871    
T4        -1.310521318        0.7467111554        -1.572579293    
T4        -1.106577101        -1.800033071       -0.1862432795    
T4        -1.443968299        -1.198140662        0.4771755534    
T4        -1.101765531        -1.287765154       -0.9948162632    
T4        -1.149151306        -1.657407107       -0.2048247621    
T4        -1.582139029        0.6694336848         1.110517061    
T4        -2.001973103         1.094634075         1.858297656    
T4       -0.6441589187        0.7580693872         1.279540329    
T4        -1.515810085        0.7352109040         1.227879017    
T4         1.443327364        -1.861401933        0.7416139416    
T4         1.646949924        -2.733432307         1.079745158    
T4        0.5641927649        -1.946327343        0.3726398611    
T4         1.356853673        -1.983903819        0.7376656829    
T4         1.083728512        0.7982934256         1.333106717    
T4         1.345363199       -0.1183464481         1.246213261    
T4         1.316629292         1.194950974        0.4936712782    
T4         1.147035019        0.7317294144         1.214525443    
T4         1.395759242         1.545565266        -1.286878213    
T4         1.971814800        0.9414324667        -1.755296184    
T4        0.5113958427         1.265850708        -1.523295182    
T4         1.356292119         1.432422141        -1.377105589    
    24
Energy=    -193.660693130639    
T4        -1.193362554        0.6714093724        -1.626750548    
T4        -1.868853392         1.148403474        -2.108850739    
T4        -1.429970265        0.7851039330       -0.7062495007    
T4        -1.310122173        0.7470246478        -1.570629949    
T4        -1.106721768        -1.799983125       -0.1869515163    
T4        -1.444708580        -1.199261457        0.4772248411    
T4        -1.103503791        -1.287048055       -0.9951093592    
T4        -1.149576218        -1.657421626       -0.2053828835    
T4        -1.583664558        0.6684285811         1.111152155    
T4        -2.004774704         1.092480331         1.858867474    
T4       -0.6459620556        0.7585429703         1.280932169    
T4        -1.517534504        0.7342480502         1.228602627    
T4         1.445351645        -1.858345013        0.7373237913    
T4         1.650613477        -2.730738334         1.073522118    
T4        0.5658086589        -1.943747489        0.3694346878    
T4         1.359035522        -1.980954431        0.7332669895    
T4         1.082235642        0.8006457581         1.334285846    
T4         1.343956008       -0.1159922555         1.247631117    
T4         1.315780113         1.197275387        0.4950160699    
T4         1.145635516        0.7340784110         1.215756338    
T4         1.396825970         1.541163104        -1.286056944    
T4         1.970846357        0.9312281754        -1.749427011    
T4        0.5115663569         1.263950866        -1.522066758    
T4         1.356983594         1.427597563        -1.375586007    
    24
Energy=    -193.658226915492    
T4        -1.192305988        0.6721238612        -1.627187823    
T4        -1.870697593         1.146347503        -2.107946190    
T4        -1.427152453        0.7854530623       -0.7061908250    
T4        -1.309211479        0.7473377138        -1.570831967    
T4        -1.108166386        -1.799528116       -0.1878448738    
T4        -1.446133945        -1.197876926        0.4754993916    
T4        -1.101614804        -1.286628272       -0.9960049242    
T4        -1.150591630        -1.656852137       -0.2063830415    
T4        -1.582237557        0.6678382819         1.111665486    
T4        -2.000417426         1.092872699         1.860466649    
T4       -0.6438810985        0.7573570637         1.278114828    
T4        -1.515648678        0.7337072993         1.228828593    
T4         1.439522553        -1.865141804        0.7502932370    
T4         1.639413628        -2.737251970         1.090439173    
T4        0.5619682720        -1.948395007        0.3771991089    
T4         1.352773487        -1.987439842        0.7460754709    
T4         1.086152963        0.7996793672         1.328712638    
T4         1.346596888       -0.1175587993         1.244599930    
T4         1.322381782         1.194183701        0.4891924677    
T4         1.149733066        0.7327631299         1.210476486    
T4         1.397375924         1.547813006        -1.291761642    
T4         1.972860915        0.9542650426        -1.774203016    
T4        0.5126399057         1.265974757        -1.524229316    
T4         1.357788061         1.435753010        -1.383278625    
    24
Energy=    -193.653847508641    
T4        -1.194482791        0.6741516317        -1.625944132    
T4        -1.871997245         1.150095309        -2.106239480    
T4        -1.429386245        0.7866189219       -0.7048560169    
T4        -1.311283292        0.7494753347        -1.569517340    
T4        -1.107586092        -1.798206548       -0.1901015143    
T4        -1.446723820        -1.197557068        0.4735532488    
T4        -1.101724369        -1.284776509       -0.9979301319    
T4        -1.150249442        -1.655590928       -0.2085575071    
T4        -1.582633656        0.6662070215         1.113952379    
T4        -2.000644239         1.090510608         1.863262368    
T4       -0.6442377429        0.7559830051         1.280040377    
T4        -1.516018056        0.7320154088         1.231134366    
T4         1.441531136        -1.860215625        0.7449041811    
T4         1.644581260        -2.732595189         1.082478445    
T4        0.5630988928        -1.944806567        0.3741846014    
T4         1.355074076        -1.982719395        0.7406611808    
T4         1.083359795        0.8015748155         1.332328122    
T4         1.345002460       -0.1151774189         1.246652591    
T4         1.320606963         1.198198690        0.4940947876    
T4         1.147223713        0.7349921102         1.214056641    
T4         1.399860508         1.539722426        -1.291891351    
T4         1.976413038        0.9389181386        -1.763964681    
T4        0.5156568782         1.256144900        -1.524269423    
T4         1.360477455         1.426510884        -1.382069630    
    24
Energy=    -193.643154609747    
T4        -1.195271714        0.6764418564        -1.624874039    
T4        -1.873194339         1.152273398        -2.104704321    
T4        -1.430569298        0.7873603222       -0.7036987133    
T4        -1.312174919        0.7515529364        -1.568376549    
T4        -1.106482377        -1.797606267       -0.1915008673    
T4        -1.446254600        -1.196790056        0.4716782610    
T4        -1.099080995        -1.284128658       -0.9992866087    
T4        -1.149029855        -1.654963214       -0.2100122584    
T4        -1.582480664        0.6656059313         1.115247140    
T4        -1.998418990         1.090344441         1.865463341    
T4       -0.6436337274        0.7541955250         1.279412157    
T4        -1.515542053        0.7313181218         1.232298968    
T4         1.438699599        -1.860182033        0.7478534638    
T4         1.641779499        -2.732437890         1.085729351    
T4        0.5605276644        -1.945092949        0.3765907138    
T4         1.352279674        -1.982710928        0.7435795425    
T4         1.085208787        0.8003466933         1.330311485    
T4         1.347900862       -0.1160682673         1.244239810    
T4         1.323730981         1.198034675        0.4929446168    
T4         1.149370260        0.7339433816         1.212100211    
T4         1.399883581         1.538790235        -1.293800462    
T4         1.978884790        0.9404203063        -1.765968724    
T4        0.5168410120         1.250842876        -1.525217791    
T4         1.360962618         1.425330929        -1.383867906    
    24
Energy=    -193.618882328017    
T4        -1.196528548        0.6791595203        -1.623188084    
T4        -1.872627391         1.157283171        -2.103313036    
T4        -1.433642557        0.7882003242       -0.7022543788    
T4        -1.313430811        0.7543236546        -1.566759245    
T4        -1.103097558        -1.797542697       -0.1920656424    
T4        -1.444176510        -1.197615237        0.4712472790    
T4        -1.096200712        -1.283668749       -0.9996037772    
T4        -1.145876900        -1.654962679       -0.2105282098    
T4        -1.582500949        0.6651652400         1.117686227    
T4        -1.998197294         1.089221614         1.868422252    
T4       -0.6436006778        0.7537157313         1.281567073    
T4        -1.515524534        0.7307851033         1.234768221    
T4         1.437852956        -1.854584957        0.7416327089    
T4         1.645093484        -2.726847226         1.076956042    
T4        0.5588769958        -1.941844705        0.3728253913    
T4         1.351862716        -1.977415352        0.7373463550    
T4         1.083662219        0.7982451981         1.330353985    
T4         1.348578352       -0.1175563547         1.244570547    
T4         1.322547193         1.196581636        0.4933988536    
T4         1.148154839        0.7320034202         1.212232315    
T4         1.399854465         1.533678953        -1.291984032    
T4         1.979655925        0.9256900941        -1.750690534    
T4        0.5172400350         1.244195984        -1.523118667    
T4         1.361090751         1.418791731        -1.380292021    
    24
Energy=    -193.521934176177    
T4        -1.193601284        0.6840641869        -1.618305261    
T4        -1.863583251         1.169305769        -2.099861708    
T4        -1.434447359        0.7913065561       -0.6981291465    
T4        -1.310198263        0.7599092809        -1.562156652    
T4        -1.097807397        -1.796641364       -0.1906666951    
T4        -1.441736644        -1.200136819        0.4742594968    
T4        -1.096065392        -1.281467083       -0.9974034963    
T4        -1.141611492        -1.654333062       -0.2088201640    
T4        -1.586501530        0.6623003344         1.120305470    
T4        -2.004504733         1.083526872         1.871353649    
T4       -0.6481003291        0.7524507391         1.286160621    
T4        -1.519884308        0.7277627527         1.237680159    
T4         1.444157198        -1.838761980        0.7158071398    
T4         1.664151348        -2.711132272         1.042616698    
T4        0.5625214975        -1.932888129        0.3551263948    
T4         1.359459097        -1.962485185        0.7114712192    
T4         1.078118645        0.7966898975         1.334558265    
T4         1.346218386       -0.1186277608         1.253638841    
T4         1.317217698         1.191812086        0.4961419377    
T4         1.143046210        0.7300986013         1.216872198    
T4         1.394933080         1.518500567        -1.281907376    
T4         1.970193238        0.8763489202        -1.697778574    
T4        0.5107843297         1.234371247        -1.513819765    
T4         1.355391614         1.399925428        -1.364831491    
    24
Energy=    -193.484914977043    
T4        -1.190425020        0.6851640087        -1.617819764    
T4        -1.861212049         1.169104821        -2.099564398    
T4        -1.431721896        0.7919609445       -0.6977099488    
T4        -1.307182764        0.7607855676        -1.561703732    
T4        -1.098454471        -1.796620906       -0.1895684702    
T4        -1.442440177        -1.199552918        0.4748225982    
T4        -1.095089420        -1.281610137       -0.9964045278    
T4        -1.142058025        -1.654261408       -0.2078031474    
T4        -1.582973513        0.6622131610         1.119855411    
T4        -1.999826760         1.084063540         1.871192531    
T4       -0.6443218000        0.7516082903         1.284698710    
T4        -1.516177014        0.7276587541         1.237137558    
T4         1.441352755        -1.843010785        0.7216588792    
T4         1.659189332        -2.715079516         1.050710843    
T4        0.5607812240        -1.936672541        0.3582677743    
T4         1.356514685        -1.966635939        0.7172630548    
T4         1.078594112        0.7943007860         1.328845035    
T4         1.345971930       -0.1215358283         1.251487174    
T4         1.318852582         1.186188760        0.4892430320    
T4         1.143577681        0.7272290387         1.211463109    
T4         1.391073145         1.524124012        -1.282835715    
T4         1.967373843        0.8880900999        -1.706592966    
T4        0.5071992614         1.238006450        -1.513347185    
T4         1.351700067         1.406077498        -1.366590005    
    24
Energy=    -193.474063679517    
T4        -1.199637697        0.6853887998        -1.613533522    
T4        -1.858489909         1.183844369        -2.096946025    
T4        -1.443696881        0.7934327823       -0.6942982681    
T4        -1.315221249        0.7630280597        -1.557742952    
T4        -1.093178740        -1.794717389       -0.1933749401    
T4        -1.440348458        -1.204909340        0.4758271912    
T4        -1.104793338        -1.277369883       -0.9986379399    
T4        -1.139107461        -1.652988120       -0.2107923728    
T4        -1.598350701        0.6583547408         1.124636903    
T4        -2.025599694         1.073379998         1.873932689    
T4       -0.6620334053        0.7537659363         1.299103131    
T4        -1.533183817        0.7236967651         1.242889586    
T4         1.467933074        -1.804923952        0.6611944113    
T4         1.710848841        -2.678476193        0.9680009521    
T4        0.5792694335        -1.908573758        0.3209511274    
T4         1.385269555        -1.930017604        0.6569141048    
T4         1.062424646        0.8070141267         1.360644246    
T4         1.335632911       -0.1061347019         1.272619813    
T4         1.297696177         1.209554616        0.5246775592    
T4         1.127516195        0.7416500988         1.242362235    
T4         1.401457755         1.477002999        -1.264417915    
T4         1.959299502        0.7731437035        -1.595516870    
T4        0.5132696430         1.211729640        -1.503130636    
T4         1.359169435         1.352942327        -1.337360684    
    24
Energy=    -193.450987752564    
T4        -1.210019459        0.6850888073        -1.609282779    
T4        -1.856139389         1.198427328        -2.094302819    
T4        -1.456808581        0.7946387673       -0.6909550732    
T4        -1.324322590        0.7648260479        -1.553814170    
T4        -1.088295497        -1.792788723       -0.1977347187    
T4        -1.438573618        -1.210619335        0.4765173714    
T4        -1.115499117        -1.273210468        -1.001183684    
T4        -1.136617714        -1.651751733       -0.2142734775    
T4        -1.614971420        0.6543988185         1.129554114    
T4        -2.052858781         1.062271378         1.876632741    
T4       -0.6812039820        0.7560301622         1.313894238    
T4        -1.551492788        0.7196214652         1.248786951    
T4         1.496484322        -1.765936356        0.5985651942    
T4         1.764207025        -2.640483626        0.8809186356    
T4        0.6001488730        -1.879692767        0.2825365860    
T4         1.416014307        -1.892451151        0.5942543666    
T4         1.045621055        0.8210711858         1.394551550    
T4         1.324797092       -0.8904981643E-01     1.294689937    
T4         1.275338250         1.235209302        0.5627153452    
T4         1.110765528        0.7575793924         1.275282988    
T4         1.414133042         1.427450230        -1.245705323    
T4         1.939977022        0.6621632066        -1.478204183    
T4        0.5208107325         1.189068847        -1.493458038    
T4         1.367091382         1.298968565        -1.307183319    
    24
Energy=    -193.435131796113    
T4        -1.215968078        0.6847911426        -1.606907514    
T4        -1.854813401         1.206336454        -2.092807690    
T4        -1.464280156        0.7952587498       -0.6891004210    
T4        -1.329534929        0.7656964213        -1.551618218    
T4        -1.085865597        -1.791715324       -0.2002879208    
T4        -1.437813569        -1.213859781        0.4767995450    
T4        -1.121774078        -1.270977479        -1.002643526    
T4        -1.135515903        -1.651082116       -0.2163237540    
T4        -1.624298407        0.6521815342         1.132267098    
T4        -2.068057373         1.056031708         1.878065232    
T4       -0.6920095248        0.7572630725         1.322075292    
T4        -1.561760684        0.7173309336         1.252035996    
T4         1.512837783        -1.744433359        0.5636966482    
T4         1.793834517        -2.619287356        0.8318442941    
T4        0.6125585399        -1.863733451        0.2612125780    
T4         1.433562150        -1.871697077        0.5593011717    
T4         1.036097676        0.8291592312         1.413667798    
T4         1.318547070       -0.7918264333E-01     1.307041259    
T4         1.262603933         1.249850000        0.5842426761    
T4         1.101250140        0.7667340062         1.293841892    
T4         1.421752950         1.399562318        -1.235355131    
T4         1.924211639        0.6043166725        -1.412418593    
T4        0.5255193635         1.178551745        -1.488636644    
T4         1.371345012         1.269469261        -1.290444480    
    24
Energy=    -193.432715678029    
T4        -1.217012075        0.6845879740        -1.606546925    
T4        -1.854761999         1.207350116        -2.092578424    
T4        -1.465537571        0.7952171563       -0.6888170624    
T4        -1.330466021        0.7656697053        -1.551284326    
T4        -1.085910907        -1.791564397       -0.2008129946    
T4        -1.438082854        -1.214336774        0.4766934854    
T4        -1.123102206        -1.270665528        -1.003005624    
T4        -1.135754100        -1.650990958       -0.2167743261    
T4        -1.625691857        0.6518390092         1.132612313    
T4        -2.070258742         1.055111912         1.878241638    
T4       -0.6936104739        0.7574054003         1.323169057    
T4        -1.563284119        0.7169765780         1.252455425    
T4         1.515763721        -1.741611442        0.5587025480    
T4         1.798564985        -2.616548048        0.8246747648    
T4        0.6149017319        -1.861583145        0.2582257481    
T4         1.436644491        -1.868971709        0.5542855451    
T4         1.034504281        0.8306457099         1.416697293    
T4         1.317395748       -0.7742038107E-01     1.308900111    
T4         1.260434062         1.252417656        0.5876641215    
T4         1.099639540        0.7683941923         1.296771705    
T4         1.423174403         1.395644583        -1.233973231    
T4         1.921767112        0.5962282240        -1.403001736    
T4        0.5264773448         1.177456810        -1.488060462    
T4         1.372212244         1.265378977        -1.288137150    
    24
Energy=    -193.427858858081    
T4        -1.219367341        0.6853541917        -1.605657013    
T4        -1.854444424         1.211187626        -2.091875212    
T4        -1.468367262        0.7962092137       -0.6880830145    
T4        -1.332539864        0.7668579957        -1.550438267    