    24
 Energy=    -196.290778845631
T4           -1.2632493610        0.7124985146       -1.5932372760
T4           -1.8251112630        1.3221000640       -2.0717025250
T4           -1.5114558890        0.8269133826       -0.6758853278
T4           -1.3669478940        0.8051813512       -1.5370544840
T4           -1.0525874680       -1.7628453880       -0.2123903623
T4           -1.4100729480       -1.2068639010        0.4799394418
T4           -1.1606812020       -1.2489615420       -1.0126846690
T4           -1.1121872250       -1.6258897180       -0.2262111212
T4           -1.6651908420        0.6541913859        1.1533636770
T4           -2.1636554770        1.0227344200        1.8827064490
T4           -0.7493641133        0.7986786350        1.3913062710
T4           -1.6117634590        0.7198654518        1.2771878740
T4            1.6054772690       -1.5045685830        0.2073922339
T4            2.0557206450       -2.3414363830        0.0926532802
T4            0.6808766243       -1.7081840680        0.0663737141
T4            1.5447538150       -1.6377629970        0.1746521916
T4            0.9709295885        0.9325564136        1.6001563500
T4            1.3200788580        0.0413197800        1.5952685650
T4            1.2137967640        1.2901348690        0.7461159394
T4            1.0467148360        0.8642417282        1.4902031780
T4            1.4567466670        0.9953606550       -1.1049513850
T4            1.6684636770        0.1066110710       -0.8194134284
T4            0.5588189021        0.9351620723       -1.4310398700
T4            1.3689034110        0.8738838407       -1.1101423420
    24
 Energy=    -196.289894098391
T4           -1.2644343300        0.7134038722       -1.5918691200
T4           -1.8279456150        1.3223415230       -2.0692387970
T4           -1.5115282760        0.8269685219       -0.6741112588
T4           -1.3682015790        0.8058928836       -1.5354941190
T4           -1.0527658910       -1.7632629850       -0.2148388808
T4           -1.4110096720       -1.2091263210        0.4785771499
T4           -1.1613656880       -1.2478731160       -1.0140955400
T4           -1.1125275010       -1.6263506850       -0.2283877582
T4           -1.6640534100        0.6518046845        1.1550294560
T4           -2.1617527190        1.0183981020        1.8858758870
T4           -0.7480074191        0.7969150625        1.3917456580
T4           -1.6104999880        0.7173089439        1.2788891470
T4            1.6042215180       -1.5035111350        0.2107806973
T4            2.0547466650       -2.3408504220        0.1006814242
T4            0.6801714702       -1.7073881490        0.0665672709
T4            1.5436046180       -1.6367993840        0.1782256035
T4            0.9720917293        0.9336592885        1.5986593610
T4            1.3202810840        0.0420760605        1.5899783210
T4            1.2143384960        1.2942180080        0.7456964347
T4            1.0476746760        0.8656817446        1.4883585380
T4            1.4572003910        0.9951434798       -1.1077536300
T4            1.6684065000        0.1070032328       -0.8199503623
T4            0.5589332479        0.9348186038       -1.4328826630
T4            1.3692482900        0.8737285010       -1.1125317790
    24
 Energy=    -196.288179829999
T4           -1.2628826880        0.7115176421       -1.5900731520
T4           -1.8257995070        1.3199605660       -2.0687731670
T4           -1.5112386610        0.8259064707       -0.6727584042
T4           -1.3667353940        0.8040488273       -1.5339251740
T4           -1.0537182430       -1.7643783060       -0.2133910260
T4           -1.4126220330       -1.2111018130        0.4803704837
T4           -1.1602784320       -1.2474204880       -1.0119092670
T4           -1.1133032480       -1.6273754020       -0.2268011514
T4           -1.6652439950        0.6516736900        1.1562667330
T4           -2.1625673910        1.0150435990        1.8889764900
T4           -0.7491062679        0.7969192224        1.3925446220
T4           -1.6116307080        0.7167826029        1.2803088420
T4            1.6038986450       -1.5014834450        0.2107728958
T4            2.0553053890       -2.3386219940        0.1027782582
T4            0.6800321599       -1.7067486560        0.0673548002
T4            1.5434180980       -1.6349237030        0.1785890327
T4            0.9713136162        0.9326865361        1.5968170590
T4            1.3172696320        0.0403009618        1.5828792670
T4            1.2142956550        1.2975922100        0.7459143519
T4            1.0467047930        0.8651627449        1.4861070410
T4            1.4588708390        0.9971970649       -1.1106014230
T4            1.6706345750        0.1094751546       -0.8219186044
T4            0.5596922881        0.9365802256       -1.4331465720
T4            1.3708734490        0.8757982634       -1.1149362100
    24
 Energy=    -196.286423862229
T4           -1.2620745280        0.7101617916       -1.5895883030
T4           -1.8233214010        1.3191076950       -2.0696077540
T4           -1.5121152110        0.8251519121       -0.6728065574
T4           -1.3659291230        0.8028343369       -1.5336774600
T4           -1.0534194700       -1.7653170930       -0.2126769650
T4           -1.4124308630       -1.2125609000        0.4814435226
T4           -1.1589543400       -1.2473551880       -1.0106805340
T4           -1.1128869970       -1.6282522580       -0.2259752528
T4           -1.6665138030        0.6526841790        1.1565154060
T4           -2.1634706580        1.0143204360        1.8903307390
T4           -0.7502891889        0.7985275510        1.3920870650
T4           -1.6128424720        0.7176476942        1.2806086370
T4            1.6036515290       -1.5004611640        0.2110783684
T4            2.0570311880       -2.3362186290        0.1006782527
T4            0.6801732242       -1.7076602500        0.0679413753
T4            1.5434732310       -1.6339721860        0.1786225596
T4            0.9709107621        0.9331390413        1.5961250220
T4            1.3144530220        0.0398322991        1.5815092870
T4            1.2151702910        1.2981422610        0.7456300063
T4            1.0461564830        0.8655098165        1.4853804090
T4            1.4596054010        0.9970148606       -1.1116232170
T4            1.6709498680        0.1092928330       -0.8226336703
T4            0.5596740297        0.9371705095       -1.4322070910
T4            1.3714579700        0.8757149319       -1.1156676720
    24
 Energy=    -196.277798712062
T4           -1.2630639140        0.7096511043       -1.5921665620
T4           -1.8243341670        1.3192365940       -2.0713461460
T4           -1.5122464050        0.8242592803       -0.6751033733
T4           -1.3668116430        0.8023566308       -1.5361121780
T4           -1.0512424520       -1.7665622500       -0.2134081010
T4           -1.4102659240       -1.2138920080        0.4807745770
T4           -1.1567364310       -1.2484894060       -1.0113450590
T4           -1.1107062900       -1.6294942170       -0.2266899006
T4           -1.6677122510        0.6541327906        1.1587606980
T4           -2.1648191910        1.0155435350        1.8925854750
T4           -0.7515530243        0.8005194874        1.3942496520
T4           -1.6140685020        0.7191369897        1.2828445500
T4            1.6019780650       -1.4994008280        0.2108287839
T4            2.0555095380       -2.3349934950        0.0998065384
T4            0.6784583604       -1.7067982570        0.0682472244
T4            1.5418139010       -1.6329161440        0.1783644371
T4            0.9706455860        0.9327153167        1.5984242670
T4            1.3146879120        0.0396057222        1.5835256060
T4            1.2143620110        1.2979966910        0.7478928674
T4            1.0458857970        0.8651469364        1.4876387780
T4            1.4616389740        0.9965381796       -1.1126779270
T4            1.6710108050        0.1083835717       -0.8235816303
T4            0.5614505657        0.9387356524       -1.4329146180
T4            1.3732061170        0.8754442534       -1.1166642730
    24
 Energy=    -196.276113919095
T4           -1.2607102700        0.7114111731       -1.5881352550
T4           -1.8240678190        1.3155406580       -2.0717546070
T4           -1.5150613780        0.8268889295       -0.6726013990
T4           -1.3653868440        0.8035295820       -1.5328449880
T4           -1.0524062500       -1.7645889450       -0.2106928580
T4           -1.4096175860       -1.2111274980        0.4837942388
T4           -1.1604040570       -1.2476147330       -1.0090073190
T4           -1.1119586330       -1.6275602660       -0.2239840133
T4           -1.6710375210        0.6499708858        1.1586763600
T4           -2.1662271420        1.0108597340        1.8940526710
T4           -0.7542933937        0.7970791609        1.3914234350
T4           -1.6170734580        0.7150006465        1.2826078340
T4            1.6062067720       -1.5002050990        0.2056914112
T4            2.0573815160       -2.3395003800        0.1148254597
T4            0.6827841246       -1.7073606060        0.0621328826
T4            1.5457533420       -1.6341634250        0.1756822495
T4            0.9703548041        0.9291712405        1.5945254000
T4            1.3078153760        0.0336279811        1.5756979530
T4            1.2141949950        1.2954370760        0.7444529688
T4            1.0447683150        0.8614173446        1.4832957330
T4            1.4602982070        1.0020721300       -1.1104315190
T4            1.6749948790        0.1134593360       -0.8266984030
T4            0.5606368235        0.9407045496       -1.4314848710
T4            1.3726144600        0.8804631808       -1.1152089590
    24
 Energy=    -196.251173689907
T4           -1.2613319180        0.7139553380       -1.5874761230
T4           -1.8310902450        1.3113274560       -2.0719901500
T4           -1.5156522510        0.8294225594       -0.6719323886
T4           -1.3668239290        0.8052073737       -1.5322991200
T4           -1.0510445390       -1.7621382630       -0.2099323416
T4           -1.4065418000       -1.2070125290        0.4841058110
T4           -1.1628431140       -1.2479034370       -1.0094918850
T4           -1.1108640440       -1.6252472100       -0.2234403527
T4           -1.6733813290        0.6445110835        1.1626719180
T4           -2.1689675350        1.0066439210        1.8971689980
T4           -0.7567643384        0.7920620432        1.3956393980
T4           -1.6194843090        0.7097567588        1.2865190540
T4            1.6082222040       -1.5003700630        0.1986050534
T4            2.0512130100       -2.3466278300        0.1366471857
T4            0.6835630112       -1.7025007490        0.0558451035
T4            1.5465628390       -1.6345764340        0.1723987028
T4            0.9694158004        0.9221911401        1.5944378160
T4            1.3066366100        0.0267434488        1.5682195450
T4            1.2088362870        1.2937521270        0.7454077206
T4            1.0432328430        0.8551273213        1.4823954660
T4            1.4619621240        1.0099083950       -1.1091726350
T4            1.6779108700        0.1193153616       -0.8326911215
T4            0.5636502192        0.9491519029       -1.4340975640
T4            1.3746114070        0.8881241782       -1.1153739770
    24
 Energy=    -196.232583117018
T4           -1.2625350930        0.7153373613       -1.5863406470
T4           -1.8367717210        1.3094620680       -2.0695589920
T4           -1.5152277470        0.8295860210       -0.6701935486
T4           -1.3683920180        0.8060176986       -1.5309205440
T4           -1.0516047970       -1.7602151480       -0.2099938088
T4           -1.4067203280       -1.2037997300        0.4832065105
T4           -1.1641699880       -1.2476154130       -1.0104951700
T4           -1.1114735720       -1.6233683110       -0.2237296367
T4           -1.6728141320        0.6415243663        1.1642362870
T4           -2.1693853930        1.0045926170        1.8976054070
T4           -0.7564943413        0.7888235390        1.3985284880
T4           -1.6190812560        0.7068575541        1.2881086110
T4            1.6095825730       -1.5017187100        0.1947293169
T4            2.0469470470       -2.3518497020        0.1475970157
T4            0.6838956662       -1.6998888910        0.0530812682
T4            1.5470714100       -1.6359139080        0.1705631545
T4            0.9689958346        0.9189189605        1.5946206260
T4            1.3084088630        0.0244403815        1.5639822820
T4            1.2055841450        1.2945558410        0.7465907057
T4            1.0427309550        0.8525009634        1.4821404870
T4            1.4627148620        1.0142534920       -1.1085434060
T4            1.6805434720        0.1232776945       -0.8347831745
T4            0.5653905571        0.9521067812       -1.4359250150
T4            1.3757312150        0.8922423119       -1.1154075890
    24
 Energy=    -196.206603776860
T4           -1.2651851290        0.7165840606       -1.5842595860
T4           -1.8443952860        1.3085256370       -2.0642102130
T4           -1.5150077910        0.8278199716       -0.6669553568
T4           -1.3713113320        0.8065992628       -1.5282730490
T4           -1.0533509570       -1.7582705800       -0.2106249702
T4           -1.4084815830       -1.1999287060        0.4810168666
T4           -1.1651121290       -1.2475441080       -1.0124352670
T4           -1.1131187400       -1.6214169330       -0.2247278622
T4           -1.6694184520        0.6396756658        1.1653266170
T4           -2.1672406920        1.0036861370        1.8973793710
T4           -0.7534718179        0.7862638729        1.4015161620
T4           -1.6158934850        0.7050384569        1.2892733130
T4            1.6112672990       -1.5049489160        0.1907404987
T4            2.0431940990       -2.3583612060        0.1538820847
T4            0.6842965322       -1.6989270360        0.0517098283
T4            1.5478956980       -1.6390275250        0.1682245738
T4            0.9672366001        0.9172922167        1.5953947660
T4            1.3111780800        0.0246659773        1.5614169080
T4            1.2010954740        1.2969897930        0.7484168341
T4            1.0412020170        0.8516311594        1.4826217970
T4            1.4640214100        1.0177933240       -1.1083368080
T4            1.6846922150        0.1267698975       -0.8370187487
T4            0.5675487790        0.9533238104       -1.4375971060
T4            1.3775106230        0.8954786997       -1.1157541130
    24
 Energy=    -196.178518247837
T4           -1.2668955070        0.7172602692       -1.5833840860
T4           -1.8489227740        1.3082165410       -2.0611358890
T4           -1.5149061300        0.8264575931       -0.6653435010
T4           -1.3731503710        0.8068883768       -1.5270218100
T4           -1.0539291960       -1.7580150600       -0.2110834587
T4           -1.4093254270       -1.1986209820        0.4795710310
T4           -1.1644260440       -1.2480779700       -1.0135711220
T4           -1.1135691310       -1.6211277690       -0.2253994542
T4           -1.6650640860        0.6396070279        1.1657008830
T4           -2.1633462480        1.0042042830        1.8971484680
T4           -0.7492399010        0.7853857547        1.4028642550
T4           -1.6116136690        0.7049413112        1.2896947720
T4            1.6113369420       -1.5070894760        0.1895471685
T4            2.0409475270       -2.3619019640        0.1585279116
T4            0.6838446596       -1.6994971760        0.0518185148
T4            1.5476020780       -1.6411462940        0.1679454000
T4            0.9645777314        0.9164680445        1.5962181860
T4            1.3110734740        0.0248878114        1.5607607740
T4            1.1974385820        1.2982720010        0.7499124470
T4            1.0387423650        0.8512105306        1.4833418640
T4            1.4645315180        1.0199482540       -1.1090300360
T4            1.6872110500        0.1285227938       -0.8406901115
T4            0.5681609921        0.9545827411       -1.4383916450
T4            1.3782909430        0.8974674658       -1.1168415480
    24
 Energy=    -196.153355764028
T4           -1.2707823600        0.7193458085       -1.5851834810
T4           -1.8605171620        1.3085115770       -2.0556390050
T4           -1.5119306510        0.8230923747       -0.6646857945
T4           -1.3771454210        0.8080469473       -1.5275726550
T4           -1.0551454040       -1.7620889850       -0.2152899239
T4           -1.4121977910       -1.2018032970        0.4737858205
T4           -1.1614000970       -1.2521471680       -1.0183472850
T4           -1.1144543000       -1.6250869520       -0.2298809459
T4           -1.6669462600        0.6406385194        1.1637995030
T4           -2.1637947280        1.0073205400        1.8951802080
T4           -0.7505242081        0.7812653481        1.4017628590
T4           -1.6132357790        0.7055801726        1.2878872380
T4            1.6134793220       -1.5051906810        0.1849626361
T4            2.0418164370       -2.3611889190        0.1798468503
T4            0.6860588214       -1.7001022840        0.0503055814
T4            1.5495906270       -1.6397198200        0.1670700262
T4            0.9723398764        0.9143030269        1.6021107360
T4            1.3220818620        0.0242180933        1.5613529810
T4            1.2069849110        1.3031682100        0.7595210277
T4            1.0471484660        0.8501408517        1.4890316030
T4            1.4612521500        1.0213712770       -1.1042813220
T4            1.6831964760        0.1288452204       -0.8390082649
T4            0.5644971532        0.9580532412       -1.4329957010
T4            1.3748682420        0.8990117007       -1.1124025770
    24
 Energy=    -196.093932418201
T4           -1.2722626190        0.7205710109       -1.5852044780
T4           -1.8677085700        1.3057920290       -2.0533842700
T4           -1.5103433770        0.8229647563       -0.6637572935
T4           -1.3789640940        0.8085939966       -1.5271807830
T4           -1.0534823370       -1.7669269620       -0.2193609018
T4           -1.4135201600       -1.2081254130        0.4693665009
T4           -1.1554115850       -1.2548758450       -1.0216363670
T4           -1.1126196950       -1.6298449010       -0.2338964238
T4           -1.6584364070        0.6423174440        1.1570794500
T4           -2.1533918910        1.0110369110        1.8887192950
T4           -0.7412895394        0.7771020316        1.3956304470
T4           -1.6043908160        0.7067720377        1.2812755830
T4            1.6104888510       -1.5002016870        0.1861835653
T4            2.0411882960       -2.3542858510        0.2218215804
T4            0.6851369039       -1.7035690480        0.0498115324
T4            1.5471673620       -1.6355682400        0.1732883957
T4            0.9742743838        0.9070388202        1.6082487590
T4            1.3212940130        0.0161873508        1.5614206030
T4            1.2142625670        1.3024357020        0.7702160518
T4            1.0494184660        0.8436146553        1.4949758930
T4            1.4532439290        1.0260058070       -1.1028372570
T4            1.6747840400        0.1308752679       -0.8461406694
T4            0.5552146985        0.9668875591       -1.4288439650
T4            1.3666451600        0.9038504491       -1.1117097880
    24
 Energy=    -196.042764841717
T4           -1.2716215450        0.7213039449       -1.5880533330
T4           -1.8691465270        1.3044284180       -2.0562003030
T4           -1.5086749570        0.8243702755       -0.6664162838
T4           -1.3784576480        0.8091446465       -1.5300011320
T4           -1.0507469880       -1.7701118300       -0.2207875763
T4           -1.4120981830       -1.2129412680        0.4685730833
T4           -1.1514398260       -1.2562936990       -1.0220888430
T4           -1.1098941990       -1.6330123560       -0.2351173246
T4           -1.6577474870        0.6427799815        1.1547322970
T4           -2.1512259060        1.0124723740        1.8868787480
T4           -0.7400832877        0.7749182316        1.3927737660
T4           -1.6034465890        0.7070203582        1.2789280560
T4            1.6079721150       -1.4966857840        0.1872413478
T4            2.0398623720       -2.3489364200        0.2453059657
T4            0.6840007849       -1.7048192540        0.0487159741
T4            1.5449798010       -1.6324277430        0.1769414003
T4            0.9770138747        0.9026864814        1.6119747930
T4            1.3204289620        0.0106407660        1.5614539140
T4            1.2198230630        1.3010146240        0.7761457258
T4            1.0520576550        0.8394846755        1.4985113060
T4            1.4489050040        1.0289884100       -1.1020678300
T4            1.6693111000        0.1328335529       -0.8479822828
T4            0.5502710098        0.9722295188       -1.4268249910
T4            1.3620836500        0.9070039532       -1.1111146490
    24
 Energy=    -195.851753135415
T4           -1.2662210470        0.7203274400       -1.5926241140
T4           -1.8629767650        1.2967730380       -2.0699342080
T4           -1.5095943990        0.8309225200       -0.6735104218
T4           -1.3737677040        0.8082769359       -1.5360679230
T4           -1.0459293130       -1.7700294490       -0.2230474243
T4           -1.4099895860       -1.2188252040        0.4696760691
T4           -1.1497311090       -1.2521229090       -1.0213141990
T4           -1.1058213020       -1.6331703700       -0.2365582377
T4           -1.6564905570        0.6418076436        1.1523003510
T4           -2.1513189370        1.0111794710        1.8836970740
T4           -0.7392882342        0.7757226235        1.3911277300
T4           -1.6024215960        0.7062344271        1.2765007420
T4            1.6007166980       -1.4938758860        0.1936195536
T4            2.0342526570       -2.3402417150        0.3029049420
T4            0.6809093712       -1.7128680590        0.0445264624
T4            1.5384680960       -1.6302545640        0.1885236874
T4            0.9836711010        0.8855937527        1.6136623530
T4            1.3123326960       -0.0115261550        1.5554449370
T4            1.2321630190        1.2867324510        0.7808530404
T4            1.0575537140        0.8221021740        1.4996001820
T4            1.4386247840        1.0457626290       -1.1028971930
T4            1.6631109590        0.1531434877       -0.8400876314
T4            0.5416118591        0.9810287354       -1.4306305830
T4            1.3525332460        0.9232098904       -1.1112082260
    24
 Energy=    -195.766490319580
T4           -1.2644722590        0.7192228731       -1.5944118320
T4           -1.8615087120        1.2934087500       -2.0740886950
T4           -1.5097160490        0.8314019540       -0.6759875417
T4           -1.3722942920        0.8070858687       -1.5382468680
T4           -1.0450736910       -1.7697166230       -0.2231249322
T4           -1.4094932610       -1.2194604970        0.4701631847
T4           -1.1487187050       -1.2508349930       -1.0207786200
T4           -1.1049916050       -1.6328540910       -0.2364849844
T4           -1.6572343420        0.6415342645        1.1522658310
T4           -2.1517329770        1.0114251640        1.8836232420
T4           -0.7399212333        0.7753588679        1.3907180830
T4           -1.6031089880        0.7060159262        1.2764131690
T4            1.5967851590       -1.4970342630        0.2007397130
T4            2.0282732220       -2.3425034680        0.3241565449
T4            0.6780384026       -1.7167636250        0.0462882822
T4            1.5344101680       -1.6333925310        0.1967669099
T4            0.9869999191        0.8814299541        1.6100227230
T4            1.3113428110       -0.0170464960        1.5485931130
T4            1.2360607060        1.2838959310        0.7780241037
T4            1.0604025080        0.8179346292        1.4956531300
T4            1.4372648410        1.0544722060       -1.1045472730
T4            1.6700291360        0.1629021977       -0.8454034068
T4            0.5404608337        0.9829780092       -1.4314463280
T4            1.3522597460        0.9311883685       -1.1132207540
    24
 Energy=    -195.602350752882
T4           -1.2670649050        0.7193082263       -1.6031030700
T4           -1.8632245770        1.2929446600       -2.0845246400
T4           -1.5147493330        0.8316590140       -0.6853549760
T4           -1.3750871310        0.8071228670       -1.5472480110
T4           -1.0437405520       -1.7707465800       -0.2237488224
T4           -1.4091871550       -1.2225205470        0.4706061567
T4           -1.1486193970       -1.2506308720       -1.0204369160
T4           -1.1039478840       -1.6339859480       -0.2368486957
T4           -1.6524903500        0.6428969413        1.1610988250
T4           -2.1514194710        1.0120217700        1.8898295250
T4           -0.7366493570        0.7772691687        1.4048429960
T4           -1.5991206000        0.7073506391        1.2855873420
T4            1.5947750490       -1.4910341330        0.1991309585
T4            2.0265754040       -2.3347602060        0.3329465260
T4            0.6770499555       -1.7133187120        0.0422805240
T4            1.5325708200       -1.6274963580        0.1961822176
T4            0.9853933587        0.8781284706        1.5973743020
T4            1.3062518120       -0.0212844637        1.5315103030
T4            1.2361560150        1.2837691210        0.7674311751
T4            1.0585677570        0.8149196609        1.4827001820
T4            1.4378498590        1.0514546830       -1.0906005820
T4            1.6719957730        0.1623612710       -0.8242916709
T4            0.5416891865        0.9756644589       -1.4182951520
T4            1.3531039830        0.9279379362       -1.0984586870
    24
 Energy=    -195.099592690930
T4           -1.2485664660        0.7176905892       -1.5932781270
T4           -1.8441399840        1.2880958300       -2.0792430290
T4           -1.5026700570        0.8300431805       -0.6772868056
T4           -1.3573353870        0.8050918291       -1.5382295570
T4           -1.0352406390       -1.7641960450       -0.2230265592
T4           -1.4016477110       -1.2168620140        0.4715259270
T4           -1.1365608610       -1.2419400450       -1.0187744610
T4           -1.0951153760       -1.6272756170       -0.2359807933
T4           -1.6601057610        0.6400160042        1.1571047780
T4           -2.1533361470        1.0112955320        1.8886149550
T4           -0.7423529213        0.7719248963        1.3949316260
T4           -1.6057617650        0.7044301929        1.2811916120
T4            1.5804978930       -1.4620772450        0.2029522394
T4            1.9978218810       -2.3090627740        0.3600765269
T4            0.6640500209       -1.6750679950        0.0269122475
T4            1.5166040140       -1.5977669970        0.2005308010
T4            0.9823081915        0.8737786555        1.6028518890
T4            1.2950077020       -0.0263640981        1.5123318410
T4            1.2255269720        1.2963061910        0.7791122783
T4            1.0534724400        0.8126381452        1.4858156220
T4            1.4354895610        1.0247929370       -1.1047997710
T4            1.6971134780        0.1417499113       -0.8439937496
T4            0.5424913676        0.9230994415       -1.4341088960
T4            1.3546660360        0.8987347816       -1.1135689950
    24
 Energy=    -194.553704140202
T4           -1.2431294050        0.7100239156       -1.5956132360
T4           -1.8473576120        1.2709190490       -2.0819636900
T4           -1.4968332240        0.8215993490       -0.6794161319
T4           -1.3529550550        0.7961082614       -1.5405876790
T4           -1.0421096550       -1.7697357320       -0.2176844102
T4           -1.4059673890       -1.2160877220        0.4731942109
T4           -1.1286967240       -1.2468849880       -1.0147801500
T4           -1.0997720240       -1.6319309040       -0.2312814828
T4           -1.6517043490        0.6425247224        1.1522343740
T4           -2.1350269400        1.0207059110        1.8868159570
T4           -0.7307291787        0.7687884838        1.3804755580
T4           -1.5956795390        0.7070997621        1.2754873050
T4            1.5621595900       -1.5085909320        0.2775923255
T4            1.9496992860       -2.3643127660        0.4613991996
T4            0.6466954027       -1.6987572150        0.0726680825
T4            1.4945788860       -1.6424772290        0.2748890475
T4            0.9907220744        0.8630662981        1.5543308760
T4            1.2972013470       -0.0379628159        1.4521113530
T4            1.2276513110        1.2918941420        0.7320152084
T4            1.0602849200        0.8026188384        1.4359792170
T4            1.4359784620        1.0934884440       -1.1239969470
T4            1.7638639710        0.2112907874       -0.9494970120
T4            0.5402604604        0.9596767127       -1.4338606640
T4            1.3632890520        0.9634269843       -1.1413251440
    24
 Energy=    -194.501207493238
T4           -1.2424332230        0.7093298660       -1.5958966180
T4           -1.8475525020        1.2692618750       -2.0822490050
T4           -1.4959991060        0.8208813998       -0.6796584188
T4           -1.3523552830        0.7952878609       -1.5408660480
T4           -1.0433367160       -1.7703405290       -0.2172353541