    60
 Energy=    -230.079055572665
LS            0.9803845375       -0.8402896641        1.2285400930
LS           -1.4657782510        1.6335916730       -0.1851939379
LS            0.0996505562       -1.3295815050        1.0404911780
LS            0.2087944898       -1.7913302640        0.0816744091
LS           -0.4756410662       -0.9263455280        0.2731676821
LS            0.5485432943       -0.7969496141        0.2034269176
LS           -0.8636714273       -1.3485687130        1.4269010100
LS           -0.2502981872        0.5665026374        1.2409571070
LS            1.7679996770       -0.3183451382       -0.9873978278
LS            0.1447744219       -0.4862802292        1.7498561650
LS            1.7250316040       -1.3887381360       -1.2021043290
LS           -0.7119494400        1.6696661410        0.5716574270
LS            0.7100265002       -0.4486071896       -0.8821820513
LS           -0.5662733962        1.0147808510       -0.2518849328
LS            0.6397399337       -1.3621049770       -1.4299984420
LS           -0.7894879590       -0.3330445175        1.1147517040
LS           -0.6887880945        0.8055168237       -1.2426790880
LS           -1.1498300130        0.7002614570        0.5720505210
LS            1.2979087010       -0.0401648359       -0.0625917883
LS            0.5765139187        1.1790564550        0.9192519103
LS            1.1457867850        0.0619317414        1.7707026360
LS            1.6787731390       -1.7025421670        1.4141744360
LS           -1.3647985910        0.2559299487       -1.7795477360
LS            1.5573676560        0.8780758205        1.2543963360
LS           -0.2610064532        0.1304192829        0.3121767981
LS           -1.6958880210        1.1808872250       -1.3106761730
LS            1.4453586170       -1.0476591600       -0.2888986420
LS           -1.5010655200        0.6223060407       -0.4789119701
LS           -1.4733933360       -1.1370442380        0.5807410306
LS           -0.8394577608       -1.7602639120       -1.1759888010
LS           -0.1231569067       -1.0899686380       -0.7268659875
LS           -1.1423862610       -1.0341245880       -0.5122887993
LS           -1.2208750320       -0.2051274146        0.0405998049
LS            1.1336233530        1.5544854230       -0.5743659841
LS            0.6900438798        0.1320813223        0.7942168903
LS            0.9146948518        1.2630201980       -1.6338969520
LS           -0.8117441462       -0.6442768248       -1.3959172980
LS            1.4245223710        0.9502495240        0.2520690785
LS           -0.2591633395       -0.0332258506       -0.7038657306
LS           -1.6570921420       -0.7191766405        1.6076053970
LS            1.1696142920       -1.6402758110        0.5121149028
LS            0.1347687752        1.4505105590       -0.8940560136
LS           -0.0854631061        1.4948348090        1.6921516450
LS            1.1304574470        0.5525902646       -0.8849774748
LS            0.4606219845        0.7958413331       -0.1091041871
LS            1.7532678570       -0.0507537159        0.8668232582
LS            0.2640956693        0.4865441416       -1.4403671830
LS           -1.0667312340        1.2271606130        1.4542698390
LS            0.6671026099       -1.3104120370       -0.5318226297
LS            0.4356383374       -0.0459552092       -0.1683454690
LS            0.8112642440       -1.6958540810        1.3573637130
LS           -1.0643464460        0.0608220363       -0.9446256265
LS            0.0567990429       -0.4716851791        0.8711468369
LS           -0.2059424541       -1.2697076760       -1.5975649360
LS           -0.5950898339       -1.6925346930       -0.2904876533
LS           -0.1561765304        1.0036978480        0.4978053720
LS            1.2131231590       -0.7462146490       -1.5149654130
LS           -1.5875952470        1.4925303010        0.6979367487
LS            1.3647033630       -0.7165229904        0.4878855510
LS           -0.4908669599        0.0863056307       -1.6853333850
    60
 Energy=    -230.078616527996
LS            0.9810151340       -0.8406484771        1.2288797660
LS           -1.4659401100        1.6334162860       -0.1851558223
LS            0.1005151549       -1.3301545990        1.0400258010
LS            0.2087355019       -1.7916543880        0.0814039726
LS           -0.4760167995       -0.9266777560        0.2735323875
LS            0.5483886090       -0.7974312232        0.2032316773
LS           -0.8627489040       -1.3477230180        1.4263764110
LS           -0.2511498306        0.5672324268        1.2402729830
LS            1.7684115630       -0.3182751608       -0.9869542781
LS            0.1446465087       -0.4863653510        1.7490429610
LS            1.7249709690       -1.3887271270       -1.2018530800
LS           -0.7121482538        1.6695152220        0.5715205829
LS            0.7102329763       -0.4485681378       -0.8822000416
LS           -0.5665837687        1.0145705580       -0.2519277439
LS            0.6398200341       -1.3618279420       -1.4302550640
LS           -0.7901257117       -0.3322768966        1.1144366860
LS           -0.6883255920        0.8056975618       -1.2428036850
LS           -1.1502145940        0.7001903123        0.5726448167
LS            1.2974965530       -0.0402217004       -0.0624246722
LS            0.5765939207        1.1785876010        0.9194334558
LS            1.1459966360        0.0618649667        1.7705939550
LS            1.6792382610       -1.7020823950        1.4143856750
LS           -1.3648893310        0.2564338114       -1.7793876930
LS            1.5575800540        0.8784996582        1.2547036330
LS           -0.2616234198        0.1303970365        0.3117640485
LS           -1.6955765990        1.1810669400       -1.3099860140
LS            1.4453761750       -1.0478240080       -0.2886184381
LS           -1.5012076960        0.6218695266       -0.4785440887
LS           -1.4738381910       -1.1372332020        0.5809722933
LS           -0.8393314730       -1.7599617890       -1.1763419670
LS           -0.1230432468       -1.0898148120       -0.7264803003
LS           -1.1421649940       -1.0341873970       -0.5123296145
LS           -1.2217028710       -0.2056247812        0.0413285731
LS            1.1336002580        1.5541960250       -0.5740945494
LS            0.6890549954        0.1313959321        0.7944690350
LS            0.9151270531        1.2633323210       -1.6334191580
LS           -0.8112616204       -0.6440596026       -1.3956704150
LS            1.4243834730        0.9499681062        0.2523304072
LS           -0.2584828023       -0.0328025775       -0.7044816209
LS           -1.6566004530       -0.7189044789        1.6080693080
LS            1.1694023350       -1.6405385030        0.5123272389
LS            0.1347918487        1.4504220030       -0.8940792439
LS           -0.0850861347        1.4950404430        1.6921257380
LS            1.1303500490        0.5523727911       -0.8851286630
LS            0.4605461022        0.7954922032       -0.1092778617
LS            1.7524588400       -0.0506079103        0.8672930179
LS            0.2642567333        0.4866784702       -1.4416602460
LS           -1.0667214140        1.2280394810        1.4546825030
LS            0.6675057199       -1.3105789130       -0.5323422425
LS            0.4354174971       -0.0462979128       -0.1679922744
LS            0.8118211205       -1.6962993660        1.3574281420
LS           -1.0639689200        0.0610979286       -0.9446950663
LS            0.0557656497       -0.4722663509        0.8704845214
LS           -0.2058285208       -1.2696932560       -1.5970652640
LS           -0.5950212333       -1.6929231890       -0.2910116845
LS           -0.1557999440        1.0040248530        0.4973151323
LS            1.2135213270       -0.7460808340       -1.5146481250
LS           -1.5880342390        1.4927985140        0.6978836726
LS            1.3643366760       -0.7164669855        0.4878884096
LS           -0.4908831467        0.0865233743       -1.6860179300
    60
 Energy=    -230.077519936138
LS            0.9810877354       -0.8407443975        1.2291905270
LS           -1.4658166740        1.6333575230       -0.1843250513
LS            0.1008185729       -1.3303219910        1.0395863260
LS            0.2090687902       -1.7926023490        0.0817553098
LS           -0.4763549153       -0.9269838896        0.2737745723
LS            0.5480277701       -0.7979267347        0.2032876741
LS           -0.8622300836       -1.3473943920        1.4264044850
LS           -0.2527354449        0.5677454632        1.2394551030
LS            1.7687781360       -0.3179704480       -0.9868042521
LS            0.1442376612       -0.4864992468        1.7484425840
LS            1.7251176320       -1.3894427330       -1.2015449880
LS           -0.7116883105        1.6691186410        0.5716183059
LS            0.7102062830       -0.4483964178       -0.8828848329
LS           -0.5665898612        1.0140857680       -0.2524503936
LS            0.6392637577       -1.3613395260       -1.4300008950
LS           -0.7902392714       -0.3323208165        1.1142413870
LS           -0.6877115531        0.8064021383       -1.2438279830
LS           -1.1505118290        0.7001372970        0.5721353611
LS            1.2965661990       -0.0397949777       -0.0623280254
LS            0.5767729205        1.1780885520        0.9201486571
LS            1.1471723300        0.0608537988        1.7711451270
LS            1.6790705790       -1.7022557510        1.4143097550
LS           -1.3639664510        0.2561796729       -1.7796149360
LS            1.5573347470        0.8780889863        1.2555630890
LS           -0.2618554730        0.1300440442        0.3112058874
LS           -1.6949803900        1.1803019610       -1.3100970480
LS            1.4449097130       -1.0473783290       -0.2890503357
LS           -1.5020668840        0.6223045242       -0.4779498256
LS           -1.4739509650       -1.1369967770        0.5812665767
LS           -0.8391729892       -1.7596418260       -1.1762278430
LS           -0.1233311942       -1.0888961760       -0.7256958109
LS           -1.1426651890       -1.0346997870       -0.5117380026
LS           -1.2218878150       -0.2055782118        0.0408842798
LS            1.1338710190        1.5541168010       -0.5735258242
LS            0.6885359817        0.1307935778        0.7953798736
LS            0.9157537579        1.2645994590       -1.6328303130
LS           -0.8115187272       -0.6433765917       -1.3950193590
LS            1.4239743370        0.9501954025        0.2532431498
LS           -0.2576265189       -0.0306638243       -0.7060343411
LS           -1.6562722310       -0.7191670877        1.6081609840
LS            1.1694648140       -1.6403950250        0.5123581905
LS            0.1349426066        1.4507104330       -0.8940480888
LS           -0.0851633632        1.4952819020        1.6922041940
LS            1.1299344940        0.5524761480       -0.8856097843
LS            0.4607950032        0.7945402760       -0.1094783018
LS            1.7522615840       -0.0508908346        0.8671086711
LS            0.2652466213        0.4873979579       -1.4445223240
LS           -1.0671383920        1.2284996960        1.4540924160
LS            0.6669772856       -1.3110945450       -0.5319282624
LS            0.4346331088       -0.0473587550       -0.1686603168
LS            0.8117447174       -1.6961173420        1.3574226920
LS           -1.0637298740        0.0627327474       -0.9445194579
LS            0.0551653191       -0.4727560018        0.8700001316
LS           -0.2061272495       -1.2692118670       -1.5964247070
LS           -0.5948783398       -1.6930011410       -0.2905091858
LS           -0.1550649624        1.0039208550        0.4965390230
LS            1.2143511190       -0.7470170296       -1.5140884840
LS           -1.5873373400        1.4920545230        0.6986863262
LS            1.3639720140       -0.7164450086        0.4879450662
LS           -0.4904064093        0.0865759977       -1.6858167920
    60
 Energy=    -230.075575995698
LS            0.9812595912       -0.8411467235        1.2289961100
LS           -1.4658092190        1.6332196140       -0.1833440970
LS            0.1002062613       -1.3298793990        1.0400684770
LS            0.2093032683       -1.7928165450        0.0821727832
LS           -0.4765697387       -0.9274672659        0.2735040776
LS            0.5479918632       -0.7978365325        0.2039502317
LS           -0.8625633197       -1.3478153720        1.4270261330
LS           -0.2543962936        0.5682115084        1.2381983930
LS            1.7693758440       -0.3183621373       -0.9867623483
LS            0.1445051021       -0.4861361001        1.7486831530
LS            1.7247574050       -1.3901665270       -1.2016631200
LS           -0.7110300413        1.6687566690        0.5722095527
LS            0.7110717286       -0.4484390695       -0.8830124716
LS           -0.5670212063        1.0148090140       -0.2527953675
LS            0.6387865063       -1.3606865090       -1.4293906810
LS           -0.7901191907       -0.3330497969        1.1140414420
LS           -0.6871651323        0.8069057666       -1.2442955590
LS           -1.1506527730        0.7000416117        0.5717179618
LS            1.2962024620       -0.0398295027       -0.0622004872
LS            0.5763707910        1.1783888350        0.9206896225
LS            1.1475167450        0.0596135203        1.7710074570
LS            1.6785671250       -1.7025987180        1.4141724220
LS           -1.3636215220        0.2559794677       -1.7795263910
LS            1.5568781220        0.8773018924        1.2563131880
LS           -0.2622040162        0.1292888589        0.3101189660
LS           -1.6943657560        1.1801498570       -1.3097539770
LS            1.4444337780       -1.0475953320       -0.2892799359
LS           -1.5025254110        0.6221928963       -0.4777739644
LS           -1.4738413270       -1.1378263840        0.5811098026
LS           -0.8387914347       -1.7593656950       -1.1757415090
LS           -0.1232405945       -1.0873980720       -0.7253665470
LS           -1.1431846130       -1.0350461820       -0.5120395272
LS           -1.2223482780       -0.2060124654        0.0403877757
LS            1.1339993340        1.5534111040       -0.5726847061
LS            0.6880684490        0.1310392912        0.7960796431
LS            0.9166455111        1.2661169020       -1.6320616220
LS           -0.8114806848       -0.6428259999       -1.3950673310
LS            1.4237805900        0.9498465522        0.2540854486
LS           -0.2562171206       -0.0287365751       -0.7081597799
LS           -1.6561190230       -0.7195707386        1.6080250460
LS            1.1692787860       -1.6404986480        0.5123479308
LS            0.1352050272        1.4513134740       -0.8936640406
LS           -0.0852487911        1.4954502600        1.6925319470
LS            1.1297870140        0.5520223367       -0.8862783037
LS            0.4607281821        0.7940125029       -0.1097520430
LS            1.7526292460       -0.0511296240        0.8670281495
LS            0.2658612820        0.4888712371       -1.4474082390
LS           -1.0676984170        1.2284383970        1.4539403620
LS            0.6662451159       -1.3118398140       -0.5313364421
LS            0.4344227293       -0.0479435113       -0.1692232292
LS            0.8110091221       -1.6956409700        1.3579767880
LS           -1.0633386050        0.0630834189       -0.9441400968
LS            0.0548986957       -0.4725053514        0.8702372932
LS           -0.2063445460       -1.2687086570       -1.5959903690
LS           -0.5943204951       -1.6920565970       -0.2898567160
LS           -0.1546622147        1.0034726920        0.4955372938
LS            1.2149635670       -0.7477006748       -1.5141061670
LS           -1.5872133040        1.4921488580        0.6989098564
LS            1.3644421640       -0.7167123214        0.4877258741
LS           -0.4900604281        0.0871815869       -1.6861181550
    60
 Energy=    -230.074552775889
LS            0.9812673777       -0.8412814782        1.2289147400
LS           -1.4658796530        1.6331440330       -0.1830893784
LS            0.0999449979       -1.3297551620        1.0403015470
LS            0.2092331839       -1.7928123680        0.0823203907
LS           -0.4766727861       -0.9275099417        0.2734862578
LS            0.5480448380       -0.7978214222        0.2041242808
LS           -0.8628697892       -1.3480775550        1.4273374540
LS           -0.2549905127        0.5682560278        1.2378607300
LS            1.7697744310       -0.3184944513       -0.9866374092
LS            0.1447547868       -0.4859033105        1.7488237680
LS            1.7246646410       -1.3903603320       -1.2019072240
LS           -0.7108870664        1.6685739490        0.5725159466
LS            0.7114698264       -0.4484550205       -0.8829547391
LS           -0.5671675225        1.0151948140       -0.2527657776
LS            0.6386138655       -1.3604144220       -1.4293424040
LS           -0.7901205569       -0.3333253993        1.1139711480
LS           -0.6870041462        0.8070712781       -1.2443536660
LS           -1.1506891910        0.6999733027        0.5716965665
LS            1.2962886670       -0.0398553957       -0.0621471891
LS            0.5762499366        1.1785499560        0.9207965855
LS            1.1473842550        0.0593650857        1.7709118790
LS            1.6784775350       -1.7025922120        1.4142459770
LS           -1.3635778520        0.2560412409       -1.7795022250
LS            1.5567936670        0.8770118238        1.2564671280
LS           -0.2623429032        0.1291136344        0.3095812009
LS           -1.6943007990        1.1801146660       -1.3095817290
LS            1.4441998490       -1.0477080810       -0.2891509637
LS           -1.5025425520        0.6220420289       -0.4777818181
LS           -1.4738005230       -1.1381486370        0.5810106221
LS           -0.8386879993       -1.7593403090       -1.1755363800
LS           -0.1232181407       -1.0869988750       -0.7253404016
LS           -1.1431892870       -1.0351906040       -0.5121295415
LS           -1.2226307920       -0.2062682492        0.0402886008
LS            1.1339825670        1.5531886970       -0.5724915842
LS            0.6880053492        0.1312842365        0.7962067340
LS            0.9168996683        1.2666102740       -1.6318785430
LS           -0.8114554333       -0.6426989446       -1.3951436750
LS            1.4236710340        0.9497172763        0.2543863474
LS           -0.2556733327       -0.0283603028       -0.7087850154
LS           -1.6561628370       -0.7196615624        1.6079855950
LS            1.1692159580       -1.6405653430        0.5123330557
LS            0.1353840815        1.4513715240       -0.8935803873
LS           -0.0851777040        1.4953982620        1.6926516070
LS            1.1296840630        0.5518567057       -0.8864711367
LS            0.4606634480        0.7939897578       -0.1098568626
LS            1.7527839620       -0.0511396856        0.8669848436
LS            0.2658861346        0.4895328939       -1.4483363560
LS           -1.0678083650        1.2283211150        1.4540942700
LS            0.6660470837       -1.3121083730       -0.5312307497
LS            0.4346604947       -0.0480258054       -0.1692358751
LS            0.8107882142       -1.6955440030        1.3581941400
LS           -1.0631868950        0.0630162305       -0.9439254726
LS            0.0548056138       -0.4723113131        0.8702912087
LS           -0.2065331067       -1.2686542920       -1.5958871780
LS           -0.5941026461       -1.6917797890       -0.2897397332
LS           -0.1545478621        1.0033343450        0.4951835771
LS            1.2152136020       -0.7477940435       -1.5142383200
LS           -1.5873038840        1.4922370510        0.6989161524
LS            1.3646195810       -0.7168349328        0.4875344090
LS           -0.4899106621        0.0874057222       -1.6863950710
    60
 Energy=    -230.072677724273
LS            0.9812419874       -0.8413002446        1.2289510850
LS           -1.4659076450        1.6330738590       -0.1829214703
LS            0.0997169077       -1.3296228180        1.0405449680
LS            0.2091672380       -1.7928012540        0.0824563310
LS           -0.4767391667       -0.9275498492        0.2735043553
LS            0.5481728796       -0.7978131285        0.2041812605
LS           -0.8630859209       -1.3483022750        1.4275580860
LS           -0.2553531651        0.5682465680        1.2377356100
LS            1.7700895950       -0.3185135167       -0.9865161345
LS            0.1449365145       -0.4857571197        1.7489350000
LS            1.7246725740       -1.3905590260       -1.2022351580
LS           -0.7108458626        1.6684479060        0.5727512731
LS            0.7117131202       -0.4485074554       -0.8828804634
LS           -0.5672389729        1.0154080900       -0.2527838170
LS            0.6385081893       -1.3602459810       -1.4293586100
LS           -0.7901223838       -0.3334790481        1.1139402480
LS           -0.6868091368        0.8071734828       -1.2444453100
LS           -1.1507474210        0.6998975148        0.5716797877
LS            1.2963828430       -0.0399680336       -0.0621398659
LS            0.5761566264        1.1786264010        0.9208728005
LS            1.1473368560        0.0592528498        1.7708501740
LS            1.6784025160       -1.7024968230        1.4144326950
LS           -1.3635711630        0.2560413566       -1.7794839650
LS            1.5567157550        0.8768026300        1.2565198880
LS           -0.2624124688        0.1290093840        0.3091605599
LS           -1.6942946470        1.1801083760       -1.3094503100
LS            1.4438881590       -1.0477048530       -0.2887577534
LS           -1.5025234220        0.6218665401       -0.4777119619
LS           -1.4737843510       -1.1383406080        0.5809820177
LS           -0.8386279349       -1.7593284610       -1.1753437030
LS           -0.1232824284       -1.0868227830       -0.7253122578
LS           -1.1430243840       -1.0353516760       -0.5122945771
LS           -1.2227911220       -0.2063462012        0.0402914814
LS            1.1339925780        1.5530299690       -0.5723971819
LS            0.6880057129        0.1314833707        0.7961938294
LS            0.9170729467        1.2669563580       -1.6317305200
LS           -0.8114291363       -0.6427390167       -1.3951081480
LS            1.4235579510        0.9496195860        0.2546481077
LS           -0.2553011704       -0.0281627138       -0.7091187994
LS           -1.6562700580       -0.7197599602        1.6080029510
LS            1.1691832140       -1.6405954540        0.5122695290
LS            0.1355163551        1.4514373690       -0.8934854173
LS           -0.0851655397        1.4953239420        1.6926860660
LS            1.1296043990        0.5517466474       -0.8865666497
LS            0.4606262110        0.7940443389       -0.1099591015
LS            1.7528823680       -0.0510672210        0.8669862042
LS            0.2658303810        0.4899743756       -1.4489802080
LS           -1.0678676160        1.2282200850        1.4542031500
LS            0.6659760819       -1.3123316730       -0.5311732497
LS            0.4348471899       -0.0480404738       -0.1691978888
LS            0.8106150030       -1.6954920720        1.3582943820
LS           -1.0631936880        0.0632879281       -0.9441390719
LS            0.0547913446       -0.4721144820        0.8703337280
LS           -0.2066688676       -1.2686485500       -1.5958715610
LS           -0.5940088821       -1.6916230930       -0.2896500164
LS           -0.1544476541        1.0032872770        0.4948987927
LS            1.2153446450       -0.7478563518       -1.5143253120
LS           -1.5873794350        1.4922163980        0.6989514639
LS            1.3647290820       -0.7170042260        0.4872344248
LS           -0.4897456701        0.0875881558       -1.6867118100
    60
 Energy=    -230.071317657481
LS            0.9811210643       -0.8410218969        1.2283769620
LS           -1.4657959330        1.6328258730       -0.1828628298
LS            0.0988153882       -1.3285711780        1.0417125630
LS            0.2087306552       -1.7925447660        0.0832720427
LS           -0.4767410322       -0.9278533155        0.2737841544
LS            0.5480673824       -0.7978933874        0.2045284481
LS           -0.8641299594       -1.3490551170        1.4282285100
LS           -0.2565804017        0.5683635015        1.2358959160
LS            1.7704788360       -0.3187468022       -0.9863849983
LS            0.1455917449       -0.4851531569        1.7493949620
LS            1.7246183850       -1.3905486500       -1.2016880090
LS           -0.7108228967        1.6678133980        0.5734140835
LS            0.7124351569       -0.4489693325       -0.8825262862
LS           -0.5674137772        1.0160930980       -0.2532692840
LS            0.6378749974       -1.3595655880       -1.4295816020
LS           -0.7902859010       -0.3339410408        1.1137957920
LS           -0.6866282264        0.8069729874       -1.2444741140
LS           -1.1510113340        0.6996715928        0.5715581993
LS            1.2968407340       -0.0402144591       -0.0621803059
LS            0.5756241781        1.1787837060        0.9212813572
LS            1.1473994930        0.0591607651        1.7708457720
LS            1.6777773390       -1.7027302030        1.4143284960
LS           -1.3636338150        0.2557480862       -1.7794469480
LS            1.5562279500        0.8770648660        1.2571404310
LS           -0.2627581746        0.1288938851        0.3079753634
LS           -1.6939078830        1.1797333640       -1.3085733480
LS            1.4441194670       -1.0484910680       -0.2894319509
LS           -1.5027316020        0.6215646371       -0.4770297088
LS           -1.4736486320       -1.1392590580        0.5811576776
LS           -0.8382120194       -1.7599449360       -1.1747033790
LS           -0.1231743825       -1.0862768520       -0.7251536277
LS           -1.1432440240       -1.0351129800       -0.5126607560
LS           -1.2233498820       -0.2072246112        0.0410419587
LS            1.1345070550        1.5526120510       -0.5720700273
LS            0.6878875818        0.1324141449        0.7955167047
LS            0.9179484053        1.2683222200       -1.6310749920
LS           -0.8109939674       -0.6422964089       -1.3954363730
LS            1.4233250080        0.9490353023        0.2548756845
LS           -0.2531273271       -0.0269903136       -0.7110093736
LS           -1.6562139680       -0.7195284931        1.6079253880
LS            1.1691193570       -1.6411311060        0.5125277203
LS            0.1359070045        1.4520957490       -0.8932906651
LS           -0.0852771043        1.4948784350        1.6928450470
LS            1.1291886630        0.5513676494       -0.8868115861
LS            0.4606743289        0.7943563195       -0.1105642094
LS            1.7523735030       -0.0511157363        0.8672149038
LS            0.2663049072        0.4918969780       -1.4516837210
LS           -1.0684840500        1.2277037390        1.4546847220
LS            0.6657140148       -1.3132922300       -0.5311683953
LS            0.4356857514       -0.0477704484       -0.1688482847
LS            0.8099061594       -1.6952356860        1.3582319430
LS           -1.0622990890        0.0628015488       -0.9435100208
LS            0.0548764324       -0.4710229205        0.8702807022
LS           -0.2069944726       -1.2687575610       -1.5961939730
LS           -0.5940092284       -1.6911158040       -0.2891866251
LS           -0.1539386453        1.0030100600        0.4939137583
LS            1.2153097410       -0.7479399539       -1.5144648130
LS           -1.5878416870        1.4919062440        0.6993372338
LS            1.3653110150       -0.7173398092        0.4876040239
LS           -0.4894743727        0.0874889819       -1.6874103570
    60
 Energy=    -230.067811002059
LS            0.9810802911       -0.8405937574        1.2281513310
LS           -1.4653851800        1.6329606410       -0.1831483456
LS            0.0980871029       -1.3275563480        1.0428361420
LS            0.2084642396       -1.7923042550        0.0839502222
LS           -0.4768417606       -0.9281675263        0.2740536140
LS            0.5482394816       -0.7979118993        0.2046221979
LS           -0.8646526939       -1.3495146690        1.4285186430
LS           -0.2572967896        0.5684242686        1.2349512610
LS            1.7702696510       -0.3186304064       -0.9864588337
LS            0.1460561595       -0.4849323516        1.7496279900
LS            1.7247534810       -1.3906262950       -1.2015312380
LS           -0.7110163208        1.6672598300        0.5736842841
LS            0.7125430548       -0.4493028474       -0.8823165129
LS           -0.5673503854        1.0163270950       -0.2539295286
LS            0.6374123343       -1.3593607520       -1.4297277990
LS           -0.7903911690       -0.3339382796        1.1137561390
LS           -0.6866458325        0.8060493831       -1.2445671260
LS           -1.1512674260        0.6995483581        0.5714349221
LS            1.2969580530       -0.0408057476       -0.0623436575
LS            0.5750839553        1.1787721900        0.9215845128
LS            1.1479308690        0.0592597208        1.7709845080
LS            1.6771825510       -1.7025544330        1.4147659370
LS           -1.3636841290        0.2552442154       -1.7793800510