    60
Energy=    -229.545395168397    
LS        0.9807434356       -0.8330101022         1.219797654    
LS        -1.455541367         1.620676995       -0.2071976619    
LS        0.9885198592E-01    -1.323509021         1.044979570    
LS        0.2090651956        -1.792445057        0.8299439759E-01
LS       -0.4765619068       -0.9376776937        0.2737081129    
LS        0.5539119949       -0.8014810555        0.2085998736    
LS       -0.8642980685        -1.347744871         1.424200614    
LS       -0.2792476197        0.5668869782         1.219863240    
LS         1.770018032       -0.3122783570        -1.003027244    
LS        0.1453834200       -0.4669518491         1.741656022    
LS         1.723074302        -1.385541344        -1.206400442    
LS       -0.7060869833         1.657581140        0.5751980703    
LS        0.7257186238       -0.4489912394       -0.8817491520    
LS       -0.5632768208         1.024302332       -0.2553617533    
LS        0.6293106214        -1.343376090        -1.437421847    
LS       -0.7976069388       -0.3341986474         1.110402161    
LS       -0.6884494778        0.8133343733        -1.242587031    
LS        -1.159507550        0.6975428376        0.5701168894    
LS         1.292965010       -0.4173552068E-01   -0.6450990640E-01
LS        0.5722763154         1.179473939        0.9258563769    
LS         1.143064277        0.6602598080E-01     1.770628985    
LS         1.679131841        -1.694016909         1.410516907    
LS        -1.364965698        0.2635624428        -1.783064055    
LS         1.547673053        0.8941795510         1.254071849    
LS       -0.2848192430        0.1224210895        0.2811004886    
LS        -1.685878500         1.183438900        -1.288349242    
LS         1.445083929        -1.048134230       -0.2928132218    
LS        -1.472113563        0.5732247040       -0.4900846946    
LS        -1.472948823        -1.172820820        0.5752640999    
LS       -0.8349708007        -1.748886890        -1.175374909    
LS       -0.1248405800        -1.065056183       -0.7264145160    
LS        -1.144401611        -1.021272600       -0.5155552734    
LS        -1.258189507       -0.2408778642        0.1065752603    
LS         1.132276751         1.559123973       -0.5691593888    
LS        0.6620174654        0.1368604160        0.7877026018    
LS        0.9343422271         1.296745495        -1.622495751    
LS       -0.8099225266       -0.6337549447        -1.404167302    
LS         1.435806916        0.9437329897        0.2391777652    
LS       -0.2056536046        0.1101212659E-01   -0.7508456481    
LS        -1.654867222       -0.7153453477         1.599169751    
LS         1.168104887        -1.648715814        0.5078675860    
LS        0.1367463529         1.464734224       -0.8958816818    
LS       -0.8860947093E-01     1.496474214         1.689790167    
LS         1.130422299        0.5576267858       -0.8888647140    
LS        0.4631508608        0.7925425824       -0.1140802420    
LS         1.713566195       -0.3414243373E-01    0.8842537635    
LS        0.2743036572        0.5301023916        -1.495164765    
LS        -1.076511654         1.232065063         1.457149426    
LS        0.6615057277        -1.308381017       -0.5353855714    
LS        0.4345075649       -0.5254034843E-01   -0.1628990812    
LS        0.8128138386        -1.687802591         1.351870719    
LS        -1.032598260       -0.1354594271       -0.7292763097    
LS        0.3989932816E-01   -0.4694470788        0.8591269086    
LS       -0.2097284302        -1.258181132        -1.602810072    
LS       -0.5921568590        -1.679968622       -0.2901353269    
LS       -0.1462718639        0.9954191161        0.4860947959    
LS         1.216403573       -0.7440237880        -1.525527808    
LS        -1.589004962         1.493198657        0.6898588271    
LS         1.383456343       -0.7197026248        0.4849040921    
LS       -0.4895282018        0.1011065279        -1.675892406    
    60
Energy=    -229.545159719791    
LS        0.9805488553       -0.8326925373         1.219730621    
LS        -1.455453407         1.620545436       -0.2073490950    
LS        0.9900686294E-01    -1.323727896         1.045105340    
LS        0.2092643412        -1.792346899        0.8297364812E-01
LS       -0.4762217573       -0.9377930627        0.2736805068    
LS        0.5541097476       -0.8012953861        0.2087698625    
LS       -0.8643438917        -1.347851993         1.423863300    
LS       -0.2791079577        0.5665137888         1.220466584    
LS         1.769603988       -0.3124234289        -1.003203693    
LS        0.1452680561       -0.4669806659         1.742074456    
LS         1.723003909        -1.385405454        -1.206520798    
LS       -0.7058214884         1.657425357        0.5749902433    
LS        0.7255203701       -0.4487475197       -0.8817944437    
LS       -0.5632895829         1.023847247       -0.2552373780    
LS        0.6292861761        -1.343416968        -1.437284866    
LS       -0.7976231844       -0.3343996962         1.110360167    
LS       -0.6886252422        0.8136969771        -1.242527624    
LS        -1.159425306        0.6974127463        0.5700774385    
LS         1.293118950       -0.4167012151E-01   -0.6450554140E-01
LS        0.5720032023         1.179902510        0.9257990791    
LS         1.142884580        0.6620219921E-01     1.770680031    
LS         1.679371885        -1.694138727         1.410342235    
LS        -1.364851125        0.2634296034        -1.782944502    
LS         1.547497122        0.8941241673         1.254117648    
LS       -0.2844583971        0.1221449927        0.2816083413    
LS        -1.686075881         1.183553556        -1.288645170    
LS         1.445154717        -1.048036809       -0.2929485251    
LS        -1.472347283        0.5734103730       -0.4903181978    
LS        -1.472694354        -1.172833179        0.5749302798    
LS       -0.8352347762        -1.748610250        -1.175741514    
LS       -0.1248146628        -1.065015192       -0.7266048514    
LS        -1.144255410        -1.021273867       -0.5155054229    
LS        -1.257788381       -0.2406745801        0.1061582350    
LS         1.132242966         1.559261095       -0.5693239017    
LS        0.6621765363        0.1372185222        0.7877870765    
LS        0.9340013547         1.296656899        -1.622588354    
LS       -0.8101284779       -0.6341070377        -1.404351105    
LS         1.435780292        0.9438591565        0.2391932316    
LS       -0.2060704910        0.1100014594E-01   -0.7503050435    
LS        -1.655049914       -0.7153777671         1.598993753    
LS         1.168237517        -1.648541413        0.5078241951    
LS        0.1364483528         1.464829226       -0.8957132603    
LS       -0.8879963430E-01     1.496379095         1.689959382    
LS         1.130475708        0.5577574697       -0.8887426412    
LS        0.4631197557        0.7925784225       -0.1139871354    
LS         1.713778052       -0.3413357018E-01    0.8841174383    
LS        0.2741630206        0.5300085317        -1.494319273    
LS        -1.076515940         1.231908235         1.456929198    
LS        0.6615205408        -1.308224925       -0.5352139630    
LS        0.4346263510       -0.5245334363E-01   -0.1629219899    
LS        0.8131702050        -1.687564145         1.351960750    
LS        -1.033090700       -0.1349969810       -0.7302649791    
LS        0.4029094425E-01   -0.4695552522        0.8596587039    
LS       -0.2097619893        -1.258253816        -1.603020951    
LS       -0.5918367760        -1.680381366       -0.2907223396    
LS       -0.1465075799        0.9946986681        0.4863541971    
LS         1.216134627       -0.7439094508        -1.525593860    
LS        -1.588739096         1.493105673        0.6896936740    
LS         1.383681496       -0.7197436042        0.4849732042    
LS       -0.4895198827        0.1010311225        -1.674972444    
    60
Energy=    -229.544133168920    
LS        0.9803951656       -0.8325733714         1.219786665    
LS        -1.455405413         1.620819342       -0.2071766566    
LS        0.9894772549E-01    -1.323595117         1.045106777    
LS        0.2091683033        -1.792169986        0.8299143865E-01
LS       -0.4764687978       -0.9377150159        0.2737617715    
LS        0.5540973389       -0.8013224384        0.2088118050    
LS       -0.8642238620        -1.347860989         1.423565042    
LS       -0.2792591704        0.5664207689         1.221063224    
LS         1.769554736       -0.3121964673        -1.002947650    
LS        0.1452787183       -0.4670817559         1.742170586    
LS         1.723541954        -1.385185483        -1.206935145    
LS       -0.7057674788         1.657138390        0.5747636611    
LS        0.7254060560       -0.4486048569       -0.8816989569    
LS       -0.5632798037         1.023283396       -0.2553108591    
LS        0.6294961705        -1.343211057        -1.437180165    
LS       -0.7980306018       -0.3340389843         1.110150091    
LS       -0.6885142799        0.8133080897        -1.242620692    
LS        -1.159353632        0.6974579510        0.5700313590    
LS         1.292994488       -0.4201717142E-01   -0.6447564023E-01
LS        0.5717278994         1.180069633        0.9259106348    
LS         1.143302235        0.6609198385E-01     1.770520866    
LS         1.679383118        -1.694113234         1.410203505    
LS        -1.365219213        0.2633335143        -1.782479457    
LS         1.547540590        0.8938771822         1.254135254    
LS       -0.2841554225        0.1220962058        0.2821341335    
LS        -1.685982182         1.183852363        -1.288843503    
LS         1.445186868        -1.048253843       -0.2927883793    
LS        -1.472987471        0.5739853415       -0.4902174401    
LS        -1.472451620        -1.172976962        0.5743726784    
LS       -0.8349696634        -1.748915369        -1.175713940    
LS       -0.1248657882        -1.064884159       -0.7263512243    
LS        -1.143999246        -1.021279303       -0.5156913197    
LS        -1.257358687       -0.2402009384        0.1055403956    
LS         1.132409043         1.559315717       -0.5692276845    
LS        0.6626467254        0.1375469071        0.7881452098    
LS        0.9340297349         1.296864573        -1.622500595    
LS       -0.8102603544       -0.6342911154        -1.404441387    
LS         1.435251539        0.9437220429        0.2394419104    
LS       -0.2063290892        0.1085781769E-01   -0.7498871764    
LS        -1.655052684       -0.7154941086         1.598565438    
LS         1.168069073        -1.648453205        0.5078858119    
LS        0.1364970975         1.465161922       -0.8956913982    
LS       -0.8863122928E-01     1.496377833         1.689980818    
LS         1.130306107        0.5577428523       -0.8887325645    
LS        0.4628097967        0.7927112318       -0.1142131301    
LS         1.714265511       -0.3421971555E-01    0.8837132087    
LS        0.2743482928        0.5297164069        -1.494262100    
LS        -1.076451700         1.231900979         1.456895387    
LS        0.6617296742        -1.308046781       -0.5353042350    
LS        0.4345898332       -0.5234825056E-01   -0.1625881162    
LS        0.8129047922        -1.687330473         1.352148345    
LS        -1.033310238       -0.1339946891       -0.7312449465    
LS        0.4040933168E-01   -0.4691722136        0.8599563384    
LS       -0.2097391155        -1.258493978        -1.602784762    
LS       -0.5918778090        -1.680784978       -0.2910717005    
LS       -0.1468232972        0.9940419576        0.4865942102    
LS         1.216349884       -0.7438536354        -1.525702859    
LS        -1.588984175         1.492600649        0.6897015145    
LS         1.383782678       -0.7203255052        0.4849004954    
LS       -0.4896305442        0.1006344166        -1.674864932    
    60
Energy=    -229.543115714278    
LS        0.9803511944       -0.8326104373         1.219779202    
LS        -1.455469552         1.620940709       -0.2070233198    
LS        0.9866606820E-01    -1.323380812         1.045093876    
LS        0.2089625048        -1.791850098        0.8296116851E-01
LS       -0.4765353367       -0.9374441647        0.2739583553    
LS        0.5537741732       -0.8010190561        0.2087069738    
LS       -0.8642984053        -1.348088708         1.423856547    
LS       -0.2788472223        0.5663549781         1.221393314    
LS         1.768987266       -0.3123808405        -1.002773589    
LS        0.1453030613       -0.4673618119         1.742479041    
LS         1.723745091        -1.385210910        -1.206754928    
LS       -0.7061550989         1.657449766        0.5748085559    
LS        0.7254060304       -0.4488632810       -0.8818077090    
LS       -0.5631509536         1.023223217       -0.2552834190    
LS        0.6297423398        -1.343569150        -1.436999433    
LS       -0.7977050296       -0.3340824711         1.110301520    
LS       -0.6887590573        0.8123793440        -1.242293032    
LS        -1.159016205        0.6975057582        0.5700454282    
LS         1.293271422       -0.4220514370E-01   -0.6444728692E-01
LS        0.5718111587         1.180017523        0.9256859504    
LS         1.143586649        0.6616123395E-01     1.770302918    
LS         1.678991197        -1.694181886         1.410143659    
LS        -1.365467335        0.2631088258        -1.782389580    
LS         1.547692876        0.8936101680         1.253772478    
LS       -0.2837041852        0.1224530014        0.2826210981    
LS        -1.686122894         1.183737020        -1.289261573    
LS         1.445359255        -1.048461027       -0.2929606956    
LS        -1.473811073        0.5753880885       -0.4897463824    
LS        -1.472550293        -1.172346538        0.5743968459    
LS       -0.8348046873        -1.749667880        -1.175474715    
LS       -0.1247618406        -1.065402448       -0.7262606900    
LS        -1.144233383        -1.021260590       -0.5160000075    
LS        -1.256660217       -0.2394482815        0.1037859962    
LS         1.132337241         1.559314359       -0.5694166611    
LS        0.6633136228        0.1375668478        0.7881442641    
LS        0.9339780009         1.296176073        -1.622882160    
LS       -0.8103210693       -0.6348497810        -1.404331150    
LS         1.434910746        0.9438129196        0.2394712163    
LS       -0.2060338540        0.1010015489E-01   -0.7492834444    
LS        -1.654988010       -0.7155339161         1.598614885    
LS         1.167986720        -1.648425805        0.5079807898    
LS        0.1365251727         1.464932252       -0.8957134983    
LS       -0.8860141253E-01     1.496236793         1.689901591    
LS         1.130248078        0.5577541047       -0.8885965389    
LS        0.4626894839        0.7932929191       -0.1140503586    
LS         1.715382061       -0.3459468860E-01    0.8831627827    
LS        0.2744065822        0.5291606081        -1.493576965    
LS        -1.076360878         1.231704825         1.457005527    
LS        0.6614531051        -1.307886635       -0.5353416137    
LS        0.4350894711       -0.5185680423E-01   -0.1623479713    
LS        0.8126112095        -1.687562713         1.352129840    
LS        -1.033781104       -0.1310042514       -0.7335240579    
LS        0.4081674531E-01   -0.4690181450        0.8600951594    
LS       -0.2095131533        -1.258817339        -1.602643178    
LS       -0.5921024321        -1.680866566       -0.2906544084    
LS       -0.1471275734        0.9945642084        0.4870274614    
LS         1.216358484       -0.7439765488        -1.525743589    
LS        -1.589250038         1.492671687        0.6898439802    
LS         1.383344687       -0.7204504761        0.4850472259    
LS       -0.4899314914        0.9998613665E-01    -1.674935736    
    60
Energy=    -229.541567650001    
LS        0.9802204095       -0.8329100584         1.219949421    
LS        -1.455826882         1.621523660       -0.2066539925    
LS        0.9835032094E-01    -1.323317297         1.045215959    
LS        0.2086368189        -1.791533267        0.8297750913E-01
LS       -0.4766305845       -0.9369835580        0.2737983159    
LS        0.5535613877       -0.8007232805        0.2083660112    
LS       -0.8646993886        -1.348484543         1.424544421    
LS       -0.2780085096        0.5661416990         1.221667031    
LS         1.768414101       -0.3125069346        -1.002761604    
LS        0.1454733298       -0.4679371241         1.742935036    
LS         1.723769133        -1.385511280        -1.206691509    
LS       -0.7068040435         1.658222032        0.5749958923    
LS        0.7253814537       -0.4493495492       -0.8816088345    
LS       -0.5633431612         1.023621888       -0.2550051924    
LS        0.6300594429        -1.344556539        -1.436834455    
LS       -0.7971649146       -0.3345028959         1.110470428    
LS       -0.6892118621        0.8110862522        -1.241502019    
LS        -1.158675183        0.6977873306        0.5701193105    
LS         1.294043554       -0.4210275660E-01   -0.6445844986E-01
LS        0.5720857621         1.179801895        0.9253216170    
LS         1.143567156        0.6614426652E-01     1.770107541    
LS         1.678660290        -1.694549100         1.410286637    
LS        -1.365444862        0.2626459309        -1.782423268    
LS         1.548140348        0.8931707676         1.253378861    
LS       -0.2828114652        0.1229502783        0.2830831346    
LS        -1.686623898         1.183513696        -1.290040560    
LS         1.445142868        -1.048520433       -0.2927955130    
LS        -1.474821488        0.5772313883       -0.4893949355    
LS        -1.472775281        -1.170778091        0.5748897269    
LS       -0.8348672027        -1.750533495        -1.174963707    
LS       -0.1250073845        -1.066406625       -0.7264355195    
LS        -1.144077343        -1.020836420       -0.5163541608    
LS        -1.255301825       -0.2382235182        0.1015838102    
LS         1.132225418         1.559322328       -0.5698834693    
LS        0.6643904511        0.1373347678        0.7878799869    
LS        0.9335198011         1.295025763        -1.623627316    
LS       -0.8101460738       -0.6354197239        -1.404197444    
LS         1.434748718        0.9441822185        0.2395077042    
LS       -0.2057762038        0.8742730932E-02   -0.7483048605    
LS        -1.655088635       -0.7157970620         1.599061732    
LS         1.167915585        -1.648143208        0.5078783525    
LS        0.1365671341         1.464110960       -0.8958299773    
LS       -0.8853922841E-01     1.495925453         1.689868052    
LS         1.129870613        0.5575741478       -0.8884381012    
LS        0.4626741102        0.7938319149       -0.1135635376    
LS         1.716894319       -0.3537050240E-01    0.8825263788    
LS        0.2739815181        0.5283025365        -1.492557031    
LS        -1.076119520         1.231180731         1.457212152    
LS        0.6617103980        -1.308079870       -0.5350565162    
LS        0.4360853892       -0.5103049895E-01   -0.1623100180    
LS        0.8122236618        -1.687860356         1.352029631    
LS        -1.034516640       -0.1267092759       -0.7372366286    
LS        0.4145904035E-01   -0.4688954632        0.8603794917    
LS       -0.2093051528        -1.259364205        -1.602550758    
LS       -0.5926303625        -1.680536273       -0.2899613519    
LS       -0.1475292403        0.9956883625        0.4875482094    
LS         1.216115728       -0.7441472715        -1.525770811    
LS        -1.589409578         1.493118177        0.6899197319    
LS         1.382411124       -0.7201501557        0.4849542736    
LS       -0.4901055628        0.9951376971E-01    -1.675244861    
    60
Energy=    -229.540102583231    
LS        0.9802173126       -0.8332683463         1.220051557    
LS        -1.456330889         1.622487390       -0.2062189807    
LS        0.9791308210E-01    -1.323370952         1.045310293    
LS        0.2082981124        -1.791364724        0.8298299193E-01
LS       -0.4764936514       -0.9365473209        0.2735345853    
LS        0.5532382228       -0.8004609413        0.2079913643    
LS       -0.8651405193        -1.348991905         1.425250064    
LS       -0.2771555135        0.5658344765         1.221742107    
LS         1.768019196       -0.3125451232        -1.002816627    
LS        0.1456711709       -0.4685285266         1.743404929    
LS         1.723645963        -1.385697044        -1.206343385    
LS       -0.7074280877         1.659117310        0.5752357164    
LS        0.7253315956       -0.4499472244       -0.8812386039    
LS       -0.5636438077         1.024240442       -0.2544892387    
LS        0.6303797404        -1.345485479        -1.436641412    
LS       -0.7967296695       -0.3350265363         1.110545714    
LS       -0.6897432341        0.8100135620        -1.240626549    
LS        -1.158456753        0.6981090836        0.5701604374    
LS         1.294969902       -0.4171107993E-01   -0.6460886974E-01
LS        0.5724849669         1.179592548        0.9250385951    
LS         1.143366037        0.6605775064E-01     1.769912658    
LS         1.678480670        -1.695093553         1.410329785    
LS        -1.365258958        0.2620936576        -1.782523549    
LS         1.548647357        0.8925797240         1.253102246    
LS       -0.2818319281        0.1233955256        0.2834906452    
LS        -1.687215031         1.183233040        -1.290850728    
LS         1.445293652        -1.048513910       -0.2929767139    
LS        -1.475723888        0.5787711604       -0.4893298441    
LS        -1.473052258        -1.168970096        0.5755750007    
LS       -0.8351031067        -1.751245083        -1.174387862    
LS       -0.1249345168        -1.067554271       -0.7267194611    
LS        -1.144080448        -1.020373264       -0.5167653812    
LS        -1.253852039       -0.2367528990        0.9991583197E-01
LS         1.132233478         1.559186437       -0.5704052902    
LS        0.6654958799        0.1369769545        0.7875350124    
LS        0.9329077595         1.293887172        -1.624458272    
LS       -0.8098094088       -0.6356416221        -1.404221655    
LS         1.434751375        0.9446752857        0.2395702775    
LS       -0.2056364017        0.7347164966E-02   -0.7473287132    
LS        -1.655295132       -0.7160167757         1.599500735    
LS         1.167868895        -1.647822675        0.5078174742    
LS        0.1365929549         1.463090933       -0.8958798603    
LS       -0.8851560502E-01     1.495563707         1.689859738    
LS         1.129322182        0.5572822119       -0.8882965077    
LS        0.4626556455        0.7943001464       -0.1129949114    
LS         1.718265039       -0.3622668240E-01    0.8821880751    
LS        0.2732849335        0.5274125034        -1.491607598    
LS        -1.075694257         1.230626482         1.457478030    
LS        0.6619147407        -1.308374950       -0.5347299877    
LS        0.4371340512       -0.5037951095E-01   -0.1624088804    
LS        0.8119383116        -1.688151086         1.351909959    
LS        -1.035269514       -0.1228252502       -0.7409027005    
LS        0.4209128325E-01   -0.4688157317        0.8606752732    
LS       -0.2092163891        -1.259952295        -1.602532831    
LS       -0.5932558692        -1.680026970       -0.2893218293    
LS       -0.1479662031        0.9968004053        0.4878844969    
LS         1.215612752       -0.7443601248        -1.525657197    
LS        -1.589446201         1.493694800        0.6899134413    
LS         1.381374383       -0.7196189051        0.4850151773    
LS       -0.4900834539        0.9921529794E-01    -1.675638815    
    60
Energy=    -229.538864478981    
LS        0.9801031092       -0.8337250761         1.220175636    
LS        -1.456872856         1.623692398       -0.2057388452    
LS        0.9747448929E-01    -1.323412018         1.045369378    
LS        0.2079745475        -1.791318033        0.8295661573E-01
LS       -0.4763435518       -0.9361393439        0.2731675227    
LS        0.5530133814       -0.8002707115        0.2075897942    
LS       -0.8656079776        -1.349447796         1.425961262    
LS       -0.2763885882        0.5654999774         1.221528900    
LS         1.767605097       -0.3125186781        -1.003009679    
LS        0.1459477828       -0.4691355469         1.743821357    
LS         1.723521254        -1.385885402        -1.206350704    
LS       -0.7080272031         1.660009133        0.5754725390    
LS        0.7253439707       -0.4506445625       -0.8808152286    
LS       -0.5641086129         1.024908072       -0.2540698608    
LS        0.6305338089        -1.346319822        -1.436401189    
LS       -0.7963993770       -0.3355518195         1.110510050    
LS       -0.6903433834        0.8091482960        -1.239669164    
LS        -1.158317255        0.6985151533        0.5702424680    
LS         1.295983979       -0.4140186746E-01   -0.6470275515E-01
LS        0.5728493108         1.179340851        0.9247965939    
LS         1.143063680        0.6594148605E-01     1.769739821    
LS         1.678420028        -1.695570515         1.410487220    
LS        -1.364987889        0.2615670431        -1.782612696    
LS         1.549174318        0.8917777634         1.252920884    
LS       -0.2808085051        0.1237710713        0.2839164485    
LS        -1.687869277         1.182984450        -1.291681629    
LS         1.445453971        -1.048164812       -0.2926547064    
LS        -1.476476634        0.5800906033       -0.4894521468    
LS        -1.473341848        -1.167072442        0.5762487281    
LS       -0.8353977646        -1.751887618        -1.173842495    
LS       -0.1246618444        -1.068725877       -0.7270469085    
LS        -1.144037029        -1.019667993       -0.5170498289    
LS        -1.252335872       -0.2353663298        0.9851330929E-01
LS         1.132299026         1.558845383       -0.5709137131    
LS        0.6666172397        0.1365897050        0.7871807424    
LS        0.9322869561         1.292720197        -1.625241164    
LS       -0.8094433784       -0.6356756112        -1.404409125    
LS         1.434819933        0.9452550147        0.2396800056    
LS       -0.2058868780        0.5990777641E-02   -0.7463914495    
LS        -1.655514399       -0.7164322856         1.600076813    
LS         1.167858456        -1.647411683        0.5077232182    
LS        0.1366106824         1.462035050       -0.8958444674    
LS       -0.8853580823E-01     1.495174339         1.689893619    
LS         1.128579120        0.5570222342       -0.8883375499    
LS        0.4626332170        0.7947257953       -0.1124313886    
LS         1.719426803       -0.3686482054E-01    0.8820614919    
LS        0.2726711163        0.5265911091        -1.490777430    
LS        -1.075144828         1.230014762         1.457751092    
LS        0.6620598999        -1.308694274       -0.5344049013    
LS        0.4381332684       -0.4988438575E-01   -0.1625031299    
LS        0.8117601975        -1.688347833         1.351786637    
LS        -1.035733438       -0.1194521604       -0.7441972725    
LS        0.4266284143E-01   -0.4687652556        0.8609864188    
LS       -0.2091593778        -1.260562159        -1.602546489    
LS       -0.5939170619        -1.679445718       -0.2887773616    
LS       -0.1483045016        0.9977471473        0.4883158082    
LS         1.215116868       -0.7444826153        -1.525462821    
LS        -1.589392077         1.494278832        0.6898298083    
LS         1.380351780       -0.7191425563        0.4846856999    
LS       -0.4899550061        0.9907528976E-01    -1.676053827    
    60
Energy=    -229.537315151513    
LS        0.9800393282       -0.8341599402         1.220244011    
LS        -1.457339389         1.625296855       -0.2052858354    
LS        0.9706199762E-01    -1.323549127         1.045446708    
LS        0.2076542428        -1.791322433        0.8297666023E-01
LS       -0.4763374222       -0.9358010256        0.2726935853    
LS        0.5527888821       -0.8002797587        0.2072410329    
LS       -0.8660023652        -1.349872834         1.426476962    
LS       -0.2758041879        0.5650838103         1.221421786    
LS         1.767548631       -0.3121268198        -1.003128728    
LS        0.1462728890       -0.4696295993         1.744148620    
LS         1.723366917        -1.385955056        -1.206287905    
LS       -0.7084905251         1.660711306        0.5756084827    
LS        0.7252112276       -0.4513091597       -0.8801924861    
LS       -0.5646367385         1.025457933       -0.2535298250    
LS        0.6306803156        -1.347087712        -1.436207411    
LS       -0.7963635302       -0.3359707653         1.110282147    
LS       -0.6908655943        0.8084111774        -1.238785788    
LS        -1.158232117        0.6990037649        0.5703352333    
LS         1.296876729       -0.4096291146E-01   -0.6484183587E-01
LS        0.5731729918         1.179139546        0.9247256748    
LS         1.142783911        0.6570221798E-01     1.769465312    
LS         1.678525185        -1.696122506         1.410534136    