SystemName     OMM_h2o                                                                         
SystemLabel     OMM_h2o                                                                         
SpinPolarized              F     # default value
NonCollinearSpin              F     # default value
SpinOrbit              F     # default value
Spin     none                                 # default value
TimeReversalSymmetry              T     # default value
DebugObjects.Node         0     # default value
DebugObjects              F     # default value
XML.Write              T     # label by itself
timer_report_threshold          0.000000000         # default value
UseParallelTimer              T     # default value
UseTreeTimer              F     # default value
alloc_report_level         0     # default value
alloc_report_threshold          0.000000000         # default value
xc.functional     GGA                                                                             
xc.authors     PBE                                                                             
MM.Cutoff          30.00000000     Bohr     # default value
MM.UnitsEnergy     eV     # default value
MM.UnitsDistance     Ang     # default value
WriteIonPlotFiles              F     # default value
Atom.Debug.KB.Generation              F     # default value
KB.New.Reference.Orbitals              F     # default value
user-basis              F     # default value
user-basis-netcdf              F     # default value
ReparametrizePseudos              F     # default value
Restricted.Radial.Grid              T     # default value
Rmax.Radial.Grid          0.000000000         # default value
PAO.BasisSize     standard            # default value
PAO.BasisType     split          # default value
PAO.SoftDefault              F     # default value
PAO.SoftInnerRadius         0.9000000000         # default value
PAO.SoftPotential          40.00000000         # default value
PAO.SplitNorm         0.1500000000         # default value
PAO.SplitNormH         -1.000000000         # default value
%block Chemical_species_label
Number_of_species              2
%block Chemical_species_label
   1   8  O
   2   1  H
%endblock Chemical_species_label
%block AtomicMass
   2   2.0
%endblock AtomicMass
%block PAO.Basis
 O    3     -0.24233
 n=2   0   2   E    23.36061     3.39721
      4.50769     2.64066
      1.00000     1.00000
 n=2   1   2   E     2.78334     5.14253
      6.14996     2.59356
      1.00000     1.00000
 n=3   2   1   E    63.98188     0.16104
      3.54403
      1.00000
 H    2      0.46527
 n=1   0   2   E    99.93138     2.59932
      4.20357     1.84463
      1.00000     1.00000
 n=2   1   1   E    24.56504     2.20231
      3.52816
      1.00000
%endblock PAO.Basis
LDAU.ProjectorGenerationMethod         2     # default value
LDAU.EnergyShift         0.5000000000E-01 Ry     # default value
LDAU.CutoffNorm         0.9000000000         # default value
PAO.SoftDefault              F     # default value
PAO.SoftInnerRadius         0.9000000000         # default value
PAO.SoftPotential          40.00000000         # default value
LDAU.ThresholdTol         0.1000000000E-01     # default value
LDAU.PopTol         0.1000000000E-02     # default value
LDAU.PotentialShift              F     # default value
LDAU.FirstIteration              F     # default value
FilterCutoff          0.000000000     Ry     # default value
FilterTol          0.000000000     Ry     # default value
KB.Rmax          6.000000000     Bohr     # default value
PAO.EnergyShift         0.2000000000E-01 Ry     # default value
PAO.SplitTailNorm              F     # default value
PAO.FixSplitTable              F     # default value
PAO.NewSplitCode              F     # default value
PAO.Filter              F     # default value
PAO.Filter              F     # default value
PAO.Filter              F     # default value
PAO.Filter              F     # default value
PAO.Filter              F     # default value
PAO.OldStylePolorbs              T     # default value
PAO.SplitTailNorm              F     # default value
PAO.FixSplitTable              F     # default value
PAO.NewSplitCode              F     # default value
Vna.Filter              F     # default value
FilterCutoff          0.000000000     Ry     # default value
FilterTol          0.000000000     Ry     # default value
KB.Rmax          6.000000000     Bohr     # default value
PAO.EnergyShift         0.2000000000E-01 Ry     # default value
PAO.SplitTailNorm              F     # default value
PAO.FixSplitTable              F     # default value
PAO.NewSplitCode              F     # default value
PAO.Filter              F     # default value
PAO.Filter              F     # default value
PAO.Filter              F     # default value
PAO.OldStylePolorbs              T     # default value
PAO.SplitTailNorm              F     # default value
PAO.FixSplitTable              F     # default value
PAO.NewSplitCode              F     # default value
Vna.Filter              F     # default value
PAO.BasisType     split          # default value
Atom-Setup-Only              F     # default value
UseStructFile              F     # default value
MD.UseStructFile              F     # default value
LatticeConstant          17.77302296           Bohr
# above item originally: LatticeConstant          9.405074970     Ang       
%block LatticeVectors
   1.0  0.0  0.0
   0.0  1.0  0.0
   0.0  0.0  1.0
AtomicCoordinatesFormat     Bohr                                                                            
NumberOfAtoms             78
ZM.UnitsLength     Bohr           # default value
ZM.UnitsAngle     rad            # default value
ZM.ForceTolLength         0.1555740000E-02 Ry/Bohr     # default value
ZM.ForceTolAngle         0.3565490000E-02 Ry/rad     # default value
ZM.MaxDisplLength         0.2000000000     Bohr     # default value
ZM.MaxDisplAngle         0.3000000000E-02 rad     # default value
ZM.CalcAllForces              F     # default value
%block AtomicCoordinatesAndAtomicSpecies
        0.271721271       3.119637055      -1.749493359  1
       -1.361096829       3.204984172      -2.669959385  2
        0.246718679       3.926604328      -0.071541239  2
        8.311652902     -11.963298323     -11.057926872  1
        6.931775021     -13.138900572     -11.504628311  2
        7.717160949     -10.951995493      -9.612233339  2
        7.634904574      11.611070140       5.419478562  1
        6.612157583      10.630203937       4.222382954  2
        8.508387659      10.275103855       6.299657650  2
        1.088296355       4.866166064       8.060187174  1
        1.621419006       4.845848730       9.857590375  2
        2.489790819       4.316201339       7.004213634  2
        9.514351225      28.712786451      30.541316695  1
       10.741948843      29.848452754      29.798712013  2
        9.600689725      29.488895711      32.186308857  2
        2.765426625     -11.534684191      12.777783235  1
        2.632675376      -9.940598422      13.750518997  2
        2.044491465     -12.798481439      13.936629614  2
        0.808101196      10.680419768      16.619470944  1
       -0.799318391      10.744597970      15.780253011  2
        1.186387569      12.296204626      17.445398242  2
       12.614874815       4.455787228       2.855892155  1
       14.156801322       5.471453307       3.091794672  2
       11.361370606       5.392414941       3.815327017  2
       13.440254527       3.192686846      13.358161133  1
       12.731662526       1.717886963      12.549059254  2
       13.286449447       4.420442333      12.017896156  2
        8.060734014      13.472519521      17.495021588  1
        6.959360013      14.899483220      17.119019774  2
        7.895271978      13.321839006      19.345735610  2
       13.859779900       7.654433989       9.866049951  1
       14.758359038       8.506380009      11.213803961  2
       15.163545822       6.660988313       9.028602683  2
        1.443293043      14.923949908       1.754173956  1
        1.554779162      14.905149655       3.590820589  2
       -0.136041319      15.843429008       1.419836240  2
       13.860957337      -0.822181029       1.242800368  1
       13.863384180       0.981393852       1.688465118  2
       13.086016293      -1.627928368       2.692080103  2
        5.353715362      36.090934150       9.641855094  1
        6.154911182      34.928350434      10.798841820  2
        3.935807034      36.484548053      10.734558553  2
       13.715105220       8.318491717      15.361493771  1
       13.988472016       6.965654264      16.571857538  2
       12.531189944       7.599923125      14.073730002  2
       12.838669661      15.557487542      -3.815654092  1
       14.575584857      15.116229783      -3.530227991  2
       12.273966722      15.985398137      -2.115037243  2
       17.461377494       7.412068499       3.145280145  1
       17.332627699       8.422084738       1.594995588  2
       18.966464137       7.878783566       4.097251518  2
        5.500090929      17.822785414      16.498974667  1
        5.863675533      19.626248353      16.264166537  2
        3.705635673      17.709063348      16.822429526  2
        5.195545602       8.430559528      19.805597537  1
        3.889070757       8.925838969      18.551895441  2
        6.665029193       8.166899349      18.716217722  2
       16.673708418      17.949738252       9.095675266  1
       15.015366329      18.480975322       8.544732644  2
       17.811679505      19.279388518       8.466509013  2
        7.734970198       5.093195180      15.225527462  1
        7.507132634       5.992128913      13.621919415  2
        9.519302577       4.576777798      14.988074280  2
        4.538261737      19.859434629       4.124545697  1
        4.507648398      18.397826560       5.225137422  2
        4.802067829      19.114248330       2.470289744  2
       11.129277450       1.751344940       8.609875697  1
       10.216317212       3.169211601       7.860238012  2
       10.842704285       0.366998906       7.383943189  2
       12.734607488      13.295108596       6.414466417  1
       13.602407491      11.811340876       7.014899686  2
       11.289811756      12.609744463       5.540772716  2
       17.505349996      12.562813872      10.446845033  1
       17.321675660      14.433171421      10.470815193  2
       17.734421129      12.285085123       8.646311526  2
       0.01 0.00 0.0 1
       0.00 0.1 0.0 2
       0.00 -0.1 0.0 2
MD.UseSaveXV              F     # default value
MD.UseSaveZM              F     # default value
WriteCoorInitial              T     # default value
MD.TypeOfRun     Verlet                                                                          
MaxBondDistance          6.000000000     Bohr     # default value
LatticeConstant          17.77302296           Bohr
# above item originally: LatticeConstant          9.405074970     Ang       
Output-Structure-Only              F     # default value
WriteCoorXmol              F     # default value
#:physical? MaxWalltime              F
MaxWalltime         0.1797693135+309     # default value
#:physical? MaxWalltime.Slack              F
MaxWalltime.Slack          5.000000000         # default value
HSetupOnly              F     # default value
LongOutput              F     # default value
WriteDenchar              F     # default value
WriteMullikenPop         0     # default value
WriteHirshfeldPop              F     # default value
WriteVoronoiPop              F     # default value
PartialChargesAtEveryGeometry              F     # default value
PartialChargesAtEveryScfStep              F     # default value
MeshCutoff          150.0000000             Ry
# above item originally: MeshCutoff          150.0000000     Ry        
NetCharge          0.000000000         # default value
MinSCFIterations         0     # default value
MaxSCFIterations        50     # default value
SCFMustConverge              F     # default value
TS.MixH              T     # default value
MixHamiltonian              T     # default value
MixCharge              F     # default value
SCF.Mix     Hamiltonian     # default value
Compat-pre-v4-DM-H              F     # default value
SCF.MixAfterConvergence              F     # default value
SCF.Recompute-H-After-Scf              F     # default value
DM.NumberPulay              3
DM.NumberBroyden         0     # default value
DM.FIRE.Mixing              F     # default value
DM.MixSCF1              T     # default value
SCF.Mix.First              T     # default value
DM.PulayOnFile              F     # default value
DM.MixingWeight         0.3000000000    
DM.OccupancyTolerance         0.1000000000E-11     # default value
DM.NumberKick         0     # default value
DM.KickMixingWeight         0.5000000000         # default value
DM.RequireHarrisConvergence              F     # default value
SCF.Harris.Converge              F     # default value
DM.HarrisTolerance         0.7349806700E-05 Ry     # default value
SCF.Harris.Tolerance         0.7349806700E-05 Ry     # default value
SCF.DM.Converge              T     # default value
DM.Tolerance         0.1000000000E-03     # default value
SCF.DM.Tolerance         0.1000000000E-03     # default value
SCF.EDM.Converge              F     # default value
SCF.EDM.Tolerance         0.7349806700E-04 Ry     # default value
SCF.H.Converge              T     # default value
SCF.H.Tolerance         0.7349806700E-04 Ry     # default value
DM.RequireEnergyConvergence              F     # default value
SCF.FreeE.Converge              F     # default value
DM.EnergyTolerance         0.7349806700E-05 Ry     # default value
SCF.FreeE.Tolerance         0.7349806700E-05 Ry     # default value
MonitorForcesInSCF              F     # default value
SCF.MonitorForces              F     # default value
UseSaveData              F     # default value
DM.UseSaveDM              F     # default value
NeglNonOverlapInt              F     # default value
SolutionMethod     OMM                                                                             
OMM.Diagon         0     # default value
OMM.DiagonFirstStep         0     # default value
OMM.Eigenvalues              F     # default value
Diag.Memory          1.000000000         # default value
ElectronicTemperature         0.1900000000E-02 Ry     # default value
FixSpin              F     # default value
Spin.Fix              F     # default value
ON.MaxNumIter      1000     # default value
ON.etol         0.1000000000E-07     # default value
ON.eta         0.7349798845E-01         Ry
# above item originally: ON.eta          1.000000000     eV        
ON.eta_alpha         0.7349798845E-01 Ry     # default value
ON.eta_beta         0.7349798845E-01 Ry     # default value
On.RcLWF          9.500000000     Bohr     # default value
ON.UseSaveLWF              F     # default value
ON.functional     kim     # default value
ON.ChemicalPotentialUse              F     # default value
ON.ChemicalPotential              F     # default value
ON.ChemicalPotentialRc          9.500000000     Bohr     # default value
ON.ChemicalPotentialTemperature         0.5000000000E-01 Ry     # default value
ON.ChemicalPotentialOrder       100     # default value
MD.VariableCell              F     # default value
compat-pre-v4-dynamics              F     # default value
MD.TypeOfRun     Verlet                                                                          
MD.NumCGsteps         0     # default value
MD.MaxCGDispl         0.2000000000     Bohr     # default value
MD.MaxForceTol         0.1555740000E-02 Ry/Bohr     # default value
MD.MaxStressTol         0.6797730000E-04 Ry/Bohr**3     # default value
GeometryMustConverge              F     # default value
MD.InitialTimeStep              1
MD.FinalTimeStep              2
MD.LengthTimeStep         0.5000000000             fs
# above item originally: MD.LengthTimeStep         0.5000000000     fs        
MD.Quench              F     # default value
MD.FireQuench              F     # default value
MD.InitialTemperature          0.000000000     K     # default value
MD.TargetTemperature          0.000000000     K     # default value
MD.TargetPressure          0.000000000     Ry/Bohr**3     # default value
MD.NoseMass          100.0000000     Ry*fs**2     # default value
MD.ParrinelloRahmanMass          100.0000000     Ry*fs**2     # default value
MD.AnnealOption     TemperatureAndPressure     # default value
MD.TauRelax          100.0000000     fs     # default value
MD.BulkModulus         0.6797730000E-02 Ry/Bohr**3     # default value
MD.FCDispl         0.4000000000E-01 Bohr     # default value
MD.FCfirst         1     # default value
MD.FClast        78     # default value
UseSpatialDecomposition              F     # default value
UseDomainDecomposition              F     # default value
SCF.Mix.Spin     all     # default value
Mixer.Debug              F     # default value
Mixer.Debug.MPI              F     # default value
DM.NumberPulay              3
DM.NumberBroyden         0     # default value
DM.MixingWeight         0.3000000000    
DM.NumberKick         0     # default value
DM.KickMixingWeight         0.5000000000         # default value
SCF.LinearMixingAfterPulay              F     # default value
SCF.MixingWeightAfterPulay         0.3000000000         # default value
SCF.Mixer.History         3     # default value
SCF.Mixer.Weight         0.3000000000         # default value
SCF.Mixer.Kick         0     # default value
SCF.Mixer.Kick.Weight         0.5000000000         # default value
SCF.Mixer.Restart         0     # default value
SCF.Mixer.Restart.Save         1     # default value
SCF.Mixer.Method     Pulay     # default value
SCF.Mixer.Variant     original     # default value
SCF.Mixer.Linear.After        -1     # default value
SCF.Mixer.Linear.After.Weight         0.3000000000         # default value
Harris_functional              F     # default value
WriteKpoints              F     # default value
WriteForces              F     # default value
WriteDM              T     # default value
WriteDM.End.Of.Cycle              T     # default value
WriteH              F     # default value
WriteH.End.Of.Cycle              F     # default value
WriteDM.NetCDF              F     # default value
WriteDM.History.NetCDF              F     # default value
WriteDMHS.NetCDF              F     # default value
WriteDMHS.History.NetCDF              F     # default value
SCF.Read.Charge.NetCDF              F     # default value
SCF.Read.Deformation.Charge.NetCDF              F     # default value
SaveInitialChargeDensity              F     # default value
AnalyzeChargeDensityOnly              F     # default value
UseNewDiagk              F     # default value
WriteBands              F     # default value
WriteKbands              F     # default value
WriteEigenvalues              F     # default value
WriteCoorStep              F     # default value
WriteMDhistory              F     # default value
WriteMDXmol              T     # default value
Write.Graphviz     none     # default value
WriteCoorStep              F     # default value
SaveHS              F     # default value
FixAuxiliaryCell              F     # default value
NaiveAuxiliaryCell              F     # default value
ReInitialiseDM              T     # default value
DM.AllowReuse              T     # default value
DM.AllowExtrapolation              T     # default value
DM.History.Depth         1     # default value
DM.NormalizationTolerance         0.1000000000E-04     # default value
DM.NormalizeDuringSCF              T     # default value
MullikenInSCF              F     # default value
WarningMinimumAtomicDistance          1.000000000     Bohr     # default value
BornCharge              F     # default value
ChangeKgridInMD              F     # default value
Diag.ParallelOverK              F     # default value
MD.RelaxCellOnly              F     # default value
MD.RemoveIntraMolecularPressure              F     # default value
COOP.Write              F     # default value
SaveRho              F     # default value
SaveDeltaRho              F     # default value
SaveRhoXC              F     # default value
SaveElectrostaticPotential              F     # default value
SaveNeutralAtomPotential              F     # default value
SaveTotalPotential              F     # default value
SaveIonicCharge              F     # default value
SaveBaderCharge              F     # default value
SaveTotalCharge              F     # default value
Siesta2Wannier90.WriteMmn              F     # default value
Siesta2Wannier90.WriteUnk              F     # default value
Siesta2Wannier90.WriteAmn              F     # default value
Siesta2Wannier90.WriteEig              F     # default value
Siesta2Wannier90.NumberOfBandsUp         0     # default value
Siesta2Wannier90.NumberOfBandsDown         0     # default value
Siesta2Wannier90.NumberOfBands         0     # default value
DM.AllowReuse              T     # default value
DM.AllowExtrapolation              T     # default value
RcSpatial          0.000000000     Bohr     # default value
ProcessorGridX         1     # default value
ProcessorGridY         1     # default value
ProcessorGridZ         1     # default value
NumberOfEigenStates       598     # default value
TimeReversalSymmetryForKpoints              T     # default value
kgrid_cutoff          0.000000000     Bohr     # default value
LongOutput              F     # default value
WriteWaveFunctions              F     # default value
ForceAuxCell              F     # default value
AtomicCoordinatesFormat     Bohr                                                                            
AtomCoorFormatOut     Bohr                       # default value
LatticeConstant          17.77302296           Bohr
# above item originally: LatticeConstant          9.405074970     Ang       
Sonly              F     # default value
Sonly              F     # default value
Debug.DHSCF              F     # default value
MeshSubDivisions         2     # default value
DirectPhi              F     # default value
SimulateDoping              F     # default value
Read-H-from-file              F     # default value
OMM.LongOutput              T
OMM.UseCholesky              F
OMM.UseSparse              T
OMM.WriteCoeffs              F     # default value
OMM.ReadCoeffs              F     # default value
OMM.Precon        -1     # default value
OMM.PreconFirstStep        -1     # default value
OMM.TPreconScale          10.00000000     Ry     # default value
OMM.RelTol         0.1000000000E-08     # default value
Use.Blocked.WriteMat              F     # default value
Use.Blocked.WriteMat              F     # default value
Use.Blocked.WriteMat              F     # default value
Use.Blocked.WriteMat              F     # default value
Use.Blocked.WriteMat              F     # default value
Use.Blocked.WriteMat              F     # default value
Use.Blocked.WriteMat              F     # default value
Use.Blocked.WriteMat              F     # default value
Use.Blocked.WriteMat              F     # default value
Use.Blocked.WriteMat              F     # default value
Use.Blocked.WriteMat              F     # default value
Use.Blocked.WriteMat              F     # default value
compute-forces              T     # default value
#:list? Grid.CellSampling              F
Sonly              F     # default value
UseDIISforDMExtrapolation              T     # default value
UseSVDExperimental              F     # default value
UseSVD              T     # default value
Sonly              F     # default value
Read-H-from-file              F     # default value
Use.Blocked.WriteMat              F     # default value
Use.Blocked.WriteMat              F     # default value
Use.Blocked.WriteMat              F     # default value
Use.Blocked.WriteMat              F     # default value
Use.Blocked.WriteMat              F     # default value
Use.Blocked.WriteMat              F     # default value
Use.Blocked.WriteMat              F     # default value
Use.Blocked.WriteMat              F     # default value
Use.Blocked.WriteMat              F     # default value
Use.Blocked.WriteMat              F     # default value
Use.Blocked.WriteMat              F     # default value
Use.Blocked.WriteMat              F     # default value
Use.Blocked.WriteMat              F     # default value
Use.Blocked.WriteMat              F     # default value
Use.Blocked.WriteMat              F     # default value
Use.Blocked.WriteMat              F     # default value
Use.Blocked.WriteMat              F     # default value
Use.Blocked.WriteMat              F     # default value
Use.Blocked.WriteMat              F     # default value
Use.Blocked.WriteMat              F     # default value
Use.Blocked.WriteMat              F     # default value
Use.Blocked.WriteMat              F     # default value
Use.Blocked.WriteMat              F     # default value
Use.Blocked.WriteMat              F     # default value
Use.Blocked.WriteMat              F     # default value
Use.Blocked.WriteMat              F     # default value
Use.Blocked.WriteMat              F     # default value
Use.Blocked.WriteMat              F     # default value
Use.Blocked.WriteMat              F     # default value
Use.Blocked.WriteMat              F     # default value
Use.Blocked.WriteMat              F     # default value
Use.Blocked.WriteMat              F     # default value
Use.Blocked.WriteMat              F     # default value
Use.Blocked.WriteMat              F     # default value
Use.Blocked.WriteMat              F     # default value
Use.Blocked.WriteMat              F     # default value
Use.Blocked.WriteMat              F     # default value
Use.Blocked.WriteMat              F     # default value
Use.Blocked.WriteMat              F     # default value
Use.Blocked.WriteMat              F     # default value
Use.Blocked.WriteMat              F     # default value
Use.Blocked.WriteMat              F     # default value
Use.Blocked.WriteMat              F     # default value
Use.Blocked.WriteMat              F     # default value
Use.Blocked.WriteMat              F     # default value
Use.Blocked.WriteMat              F     # default value
Use.Blocked.WriteMat              F     # default value
Use.Blocked.WriteMat              F     # default value
Use.Blocked.WriteMat              F     # default value
Use.Blocked.WriteMat              F     # default value
Use.Blocked.WriteMat              F     # default value
compute-forces              T     # default value
Read-H-from-file              F     # default value
WriteCoorXmol              F     # default value
WriteCoorCerius              F     # default value
BasisPressure         0.2000000000     GPa     # default value
OpticalCalculation              F     # default value
