    18
Energy=    -45.0220092397249    
O          1.678527954       -0.3774968718         1.784495173    
O          1.254316663         1.753263144        0.1232486075E-01
O          1.729825275       -0.8617878171        -1.125954376    
O         -1.464134174         1.407772607       -0.1216782703    
O         -1.070911126        -1.108356695        -1.286733778    
O         -1.139828694       -0.8699757719         1.644299783    
H         0.7440724265       -0.6182363733         1.954263367    
H          1.864686206       -0.7299429598        0.8966336595    
H          1.574121889         1.114368158       -0.6525927922    
H          1.463126533         1.299370046        0.8612690196    
H          2.223298753        -1.415255922        -1.736961838    
H         0.7772292519        -1.068056241        -1.270499709    
H         -1.973289267         2.223972223       -0.1231745982    
H        -0.5035968196         1.673057949       -0.7514184952E-01
H         -1.328335420       -0.2007311725       -0.9872262246    
H         -1.783231007        -1.418399434        -1.854283395    
H         -1.399788725        0.1953419593E-01     1.342337571    
H         -1.150082524        -1.396595251        0.8294841658    
    18
Energy=    -45.0191888992692    
O          1.673886380       -0.3689986647         1.781276751    
O          1.251883169         1.753668688        0.2706831712E-02
O          1.736556636       -0.8677285866        -1.127168497    
O         -1.467345657         1.408525039       -0.1105192325    
O         -1.064997012        -1.097935559        -1.286720058    
O         -1.143901735       -0.8807802447         1.643346885    
H         0.7409357602       -0.6151723256         1.951302759    
H          1.864352044       -0.7261240639        0.8961252767    
H          1.573879605         1.117576143       -0.6635271251    
H          1.461730754         1.298496736        0.8509074452    
H          2.226815570        -1.436680684        -1.726481650    
H         0.7827070494        -1.069104973        -1.270582776    
H         -1.975979147         2.224811418       -0.1162580573    
H        -0.5064512774         1.672973837       -0.6962157420E-01
H         -1.324064573       -0.1916944787       -0.9838846171    
H         -1.778074272        -1.407939378        -1.852955967    
H         -1.408282634        0.1031129317E-01     1.350588926    
H         -1.147643465        -1.397700381        0.8223254477    
    18
Energy=    -45.0165098300629    
O          1.669779668       -0.3632664229         1.777929932    
O          1.253537090         1.756426082       -0.6930178210E-02
O          1.738637233       -0.8710983302        -1.125022738    
O         -1.467306257         1.406233758       -0.1002657106    
O         -1.064822963        -1.097151629        -1.288896014    
O         -1.144390343       -0.8850690157         1.645065115    
H         0.7372389421       -0.6102040843         1.949138156    
H          1.859599179       -0.7223027989        0.8932632757    
H          1.577307338         1.118886950       -0.6708268104    
H          1.462921598         1.304250290        0.8429800622    
H          2.229936109        -1.450373015        -1.713417102    
H         0.7846001338        -1.068589025        -1.272260593    
H         -1.978706894         2.221092004       -0.1036478808    
H        -0.5068912518         1.674181126       -0.6851535153E-01
H         -1.319437188       -0.1929372056       -0.9770975659    
H         -1.774804047        -1.392858642        -1.867071412    
H         -1.408111028        0.5639398110E-02     1.349625095    
H         -1.153080125        -1.406355626        0.8268104873    
    18
Energy=    -45.0151973691621    
O          1.668140420       -0.3610654799         1.777062012    
O          1.254155802         1.757450667       -0.1007445013E-01
O          1.737757638       -0.8717730493        -1.123802257    
O         -1.466375161         1.406369987       -0.9927797827E-01
O         -1.064735386        -1.096660152        -1.290530440    
O         -1.143752937       -0.8865431065         1.645187271    
H         0.7364184529       -0.6102513509         1.949410192    
H          1.857733605       -0.7199510596        0.8922304179    
H          1.577169838         1.118882884       -0.6733693909    
H          1.462021558         1.305675726        0.8403986956    
H          2.230919483        -1.453020674        -1.708536947    
H         0.7842217393        -1.070410215        -1.272090695    
H         -1.978727804         2.220782842       -0.1000259801    
H        -0.5062057757         1.675465424       -0.6584766798E-01
H         -1.319270558       -0.1939830861       -0.9745742952    
H         -1.773581895        -1.388624615        -1.871723890    
H         -1.405636417        0.4227604838E-02     1.348097547    
H         -1.154245406        -1.410068533        0.8283286235    
    18
Energy=    -45.0135738108548    
O          1.666566083       -0.3611998079         1.775865520    
O          1.253114637         1.757345577       -0.1248257915E-01
O          1.738776657       -0.8710068088        -1.125472278    
O         -1.466406379         1.407588938       -0.9754426757E-01
O         -1.063852328        -1.096741997        -1.288545910    
O         -1.145905668       -0.8860159808         1.646244244    
H         0.7361848367       -0.6141133570         1.950523626    
H          1.855422600       -0.7185287759        0.8904819037    
H          1.577033443         1.119109669       -0.6758596148    
H          1.460033585         1.305034382        0.8378260700    
H          2.233801887        -1.454170018        -1.706927017    
H         0.7857329326        -1.073845551        -1.272423234    
H         -1.979375642         2.221225286       -0.9859343228E-01
H        -0.5067642672         1.677244084       -0.6370053322E-01
H         -1.317824946       -0.1939077259       -0.9724140518    
H         -1.770567888        -1.386103311        -1.873445028    
H         -1.405325337        0.4815636650E-02     1.347275675    
H         -1.154637011        -1.410226426        0.8300516744    
    18
Energy=    -45.0112726732583    
O          1.664958310       -0.3596752392         1.773503154    
O          1.253477227         1.758873904       -0.1436427139E-01
O          1.738880929       -0.8708844814        -1.126089798    
O         -1.465860510         1.407306595       -0.9392689704E-01
O         -1.063807338        -1.098025852        -1.286004236    
O         -1.149017244       -0.8851033950         1.648297230    
H         0.7364763784       -0.6170422082         1.951760587    
H          1.852404479       -0.7158190776        0.8872865328    
H          1.575705811         1.121174749       -0.6789739204    
H          1.459650031         1.304370586        0.8351122129    
H          2.235440996        -1.457836384        -1.702468080    
H         0.7862084510        -1.076403222        -1.272024894    
H         -1.979726329         2.220272703       -0.9033954447E-01
H        -0.5063817427         1.677855476       -0.6596014930E-01
H         -1.317005407       -0.1938293761       -0.9730994135    
H         -1.764097843        -1.383115037        -1.880930399    
H         -1.403961786        0.5812736309E-02     1.345427875    
H         -1.157337216        -1.411428664        0.8336547800    
    18
Energy=    -45.0096459186813    
O          1.664248976       -0.3585198987         1.771893527    
O          1.254314856         1.760380037       -0.1495901393E-01
O          1.738225251       -0.8713339983        -1.125088387    
O         -1.465071633         1.406451748       -0.9265004146E-01
O         -1.063940870        -1.098711338        -1.285581647    
O         -1.149736843       -0.8849997680         1.649544521    
H         0.7361354285       -0.6164877792         1.951179461    
H          1.850745348       -0.7141992604        0.8850190846    
H          1.574047275         1.122878933       -0.6806814047    
H          1.460094519         1.304236545        0.8338868351    
H          2.235340675        -1.460448533        -1.698758071    
H         0.7857100442        -1.076986108        -1.270892358    
H         -1.979361888         2.219323406       -0.8347368027E-01
H        -0.5054430961         1.677652561       -0.6818697162E-01
H         -1.317196724       -0.1940291209       -0.9743547019    
H         -1.759839446        -1.381576199        -1.886875874    
H         -1.402145607        0.6124102218E-02     1.344706997    
H         -1.160119071        -1.413251514        0.8361324929    
    18
Energy=    -45.0078690103261    
O          1.663832411       -0.3563929380         1.771077159    
O          1.255071466         1.761952118       -0.1531664985E-01
O          1.736553490       -0.8718712000        -1.123790429    
O         -1.463548671         1.405180161       -0.9251262339E-01
O         -1.064848383        -1.099538983        -1.286806895    
O         -1.149236629       -0.8855914689         1.650287986    
H         0.7356381678       -0.6134707231         1.951018081    
H          1.849338642       -0.7121837161        0.8838742486    
H          1.572974081         1.124804862       -0.6821090104    
H          1.461216046         1.304949419        0.8331382236    
H          2.233600355        -1.463927278        -1.694160686    
H         0.7839941267        -1.076723102        -1.269786235    
H         -1.978236215         2.217711717       -0.7524189094E-01
H        -0.5037468888         1.677060778       -0.7006972495E-01
H         -1.318635040       -0.1949237445       -0.9761443684    
H         -1.756362867        -1.379802597        -1.894196864    
H         -1.398900263        0.5608176730E-02     1.343104794    
H         -1.162696635        -1.416337668        0.8384956520    
    18
Energy=    -45.0057214567573    
O          1.663629749       -0.3558175956         1.770176019    
O          1.254974654         1.762972435       -0.1551238129E-01
O          1.735359138       -0.8723645732        -1.122152691    
O         -1.461987373         1.404373151       -0.9334628513E-01
O         -1.064902025        -1.099722936        -1.287998865    
O         -1.148474172       -0.8863361266         1.651090833    
H         0.7345717183       -0.6101107504         1.949439235    
H          1.847892367       -0.7108459740        0.8822469586    
H          1.571346441         1.126400359       -0.6835168415    
H          1.461815603         1.305328108        0.8324537491    
H          2.232532566        -1.466168980        -1.690498996    
H         0.7828544184        -1.076783210        -1.268190148    
H         -1.977146376         2.216723341       -0.6895329391E-01
H        -0.5021380861         1.676870861       -0.7099540575E-01
H         -1.319715547       -0.1955714866       -0.9772213832    
H         -1.753293213        -1.378659785        -1.899524502    
H         -1.395850724        0.5216289785E-02     1.342881436    
H         -1.165461943        -1.418999313        0.8404833303    
    18
Energy=    -45.0043384644576    
O          1.663743775       -0.3558058937         1.770011675    
O          1.254235618         1.763193973       -0.1561547185E-01
O          1.734730316       -0.8724683123        -1.121401990    
O         -1.460883521         1.404071718       -0.9416077964E-01
O         -1.064933368        -1.099704886        -1.288880628    
O         -1.148020115       -0.8869763454         1.651373622    
H         0.7340662691       -0.6078429179         1.948960156    
H          1.846990667       -0.7101236828        0.8816376077    
H          1.570744709         1.127133687       -0.6841668943    
H          1.462170980         1.305636804        0.8320668816    
H          2.231891616        -1.467197757        -1.688783535    
H         0.7821406845        -1.076914387        -1.267493021    
H         -1.976499482         2.216226773       -0.6610994483E-01
H        -0.5011679286         1.676914398       -0.7103174306E-01
H         -1.320436530       -0.1959463913       -0.9775967213    
H         -1.752050386        -1.378167725        -1.902002193    
H         -1.393994181        0.4808705846E-02     1.342809653    
H         -1.166721926        -1.420333947        0.8412440958    
    18
Energy=    -45.0025458563347    
O          1.664513443       -0.3568075425         1.768367157    
O          1.253112488         1.763044182       -0.1595282311E-01
O          1.735389150       -0.8724106276        -1.120273270    
O         -1.460827369         1.403987798       -0.9549448652E-01
O         -1.063448772        -1.099770332        -1.289099088    
O         -1.149476218       -0.8869702577         1.652489305    
H         0.7347475734       -0.6070707404         1.949163842    
H          1.844988749       -0.7106071304        0.8794949669    
H          1.570894364         1.127576060       -0.6849860934    
H          1.462782235         1.305638486        0.8311655756    
H          2.232657383        -1.467591503        -1.688093762    
H         0.7824374032        -1.077088933        -1.267304826    
H         -1.976932625         2.215868034       -0.6302186880E-01
H        -0.5014243802         1.677101628       -0.7128655096E-01
H         -1.320445559       -0.1964188428       -0.9770527919    
H         -1.749137252        -1.378175896        -1.903850242    
H         -1.394085184        0.5549912479E-02     1.344960734    
H         -1.169738233        -1.419350481        0.8416349899    
    18
Energy=    -44.9992371314630    
O          1.663594056       -0.3573924568         1.764653237    
O          1.253323753         1.764689413       -0.1755498641E-01
O          1.736820377       -0.8716729406        -1.121496242    
O         -1.461398332         1.402819248       -0.9789885204E-01
O         -1.062582752        -1.102084320        -1.289508249    
O         -1.150343946       -0.8830196869         1.655730375    
H         0.7336303992       -0.6065060226         1.945072890    
H          1.843865033       -0.7121705670        0.8759343635    
H          1.575125502         1.130990128       -0.6855837345    
H          1.464012877         1.307543021        0.8295095696    
H          2.231156467        -1.472722616        -1.685027517    
H         0.7833172404        -1.075731856        -1.263986660    
H         -1.977704536         2.213127927       -0.4981531747E-01
H        -0.5027115664         1.675288030       -0.7206282902E-01
H         -1.320165927       -0.1989353114       -0.9784980522    
H         -1.741441101        -1.377574169        -1.912950062    
H         -1.396949547        0.7865680321E-02     1.347025768    
H         -1.175540802        -1.418009688        0.8473170671    
    18
Energy=    -44.9913756263639    
O          1.663750201       -0.3522822340         1.762487053    
O          1.257845685         1.768477984       -0.1940870020E-01
O          1.735970806       -0.8712163519        -1.122667892    
O         -1.462680306         1.399431636       -0.9953427173E-01
O         -1.064550272        -1.106253428        -1.292686547    
O         -1.151267578       -0.8794497897         1.657564217    
H         0.7356380980       -0.6057151606         1.947281556    
H          1.843655231       -0.7120826850        0.8757130895    
H          1.583315711         1.134089006       -0.6849583984    
H          1.467448415         1.312030089        0.8283125714    
H          2.226154500        -1.481401311        -1.680022838    
H         0.7811700638        -1.071710871        -1.263154120    
H         -1.978647730         2.208164678       -0.3174048450E-01
H        -0.5041195921         1.671418461       -0.7452008561E-01
H         -1.322419863       -0.2029650535       -0.9816711537    
H         -1.735255889        -1.375671836        -1.927412938    
H         -1.399889740        0.9653952912E-02     1.345185389    
H         -1.180110544        -1.418013272        0.8520943204    
    18
Energy=    -44.9885912360620    
O          1.663330662       -0.3489208209         1.762560878    
O          1.260697372         1.770027635       -0.1943903732E-01
O          1.734692275       -0.8714439343        -1.122712351    
O         -1.462967169         1.398110633       -0.9956534851E-01
O         -1.065986358        -1.107431525        -1.294118941    
O         -1.150259385       -0.8790622216         1.657266893    
H         0.7360223980       -0.6050342630         1.948534402    
H          1.844513469       -0.7115446598        0.8770304748    
H          1.584905790         1.134599568       -0.6845877469    
H          1.468467312         1.313269349        0.8286651635    
H          2.223832638        -1.484049393        -1.678131186    
H         0.7797493987        -1.070026450        -1.263486768    
H         -1.978602837         2.207078202       -0.2731105763E-01
H        -0.5039618394         1.669869823       -0.7535826891E-01
H         -1.323649281       -0.2041309521       -0.9829847279    
H         -1.735066022        -1.374762210        -1.931542570    
H         -1.399544812        0.9535244325E-02     1.343084663    
H         -1.180166415        -1.419580210        0.8529562971    
    18
Energy=    -44.9840944888965    
O          1.662706280       -0.3460747579         1.763370057    
O          1.262683144         1.771030001       -0.1891856372E-01
O          1.733328802       -0.8719800100        -1.123425639    
O         -1.463159875         1.396391336       -0.9939603019E-01
O         -1.066829860        -1.108441329        -1.295179816    
O         -1.149114519       -0.8787400942         1.656782457    
H         0.7354036751       -0.6035681045         1.948967200    
H          1.845830950       -0.7107319722        0.8788028216    
H          1.585790230         1.135439349       -0.6846181925    
H          1.468653467         1.313807074        0.8294118615    
H          2.221696612        -1.486622992        -1.676684539    
H         0.7783341786        -1.068366252        -1.264545054    
H         -1.978337651         2.206656581       -0.2404613087E-01
H        -0.5023730961         1.669265499       -0.7586448579E-01
H         -1.325536262       -0.2051117712       -0.9834598388    
H         -1.735153284        -1.374073640        -1.934849047    
H         -1.398412859        0.9321052956E-02     1.340438533    
H         -1.179502737        -1.421696157        0.8540751746    
    18
Energy=    -44.9825849202075    
O          1.665363530       -0.3431579118         1.767440262    
O          1.265742327         1.773163902       -0.2047426604E-01
O          1.729107282       -0.8727443179        -1.122025530    
O         -1.460115636         1.394407547       -0.9866437401E-01
O         -1.071347915        -1.108939462        -1.299715868    
O         -1.150061794       -0.8803957129         1.655461934    
H         0.7385596242       -0.6005800404         1.953067902    
H          1.847242195       -0.7056480556        0.8821216566    
H          1.590285031         1.136505843       -0.6845582565    
H          1.469773641         1.319343589        0.8300606313    
H          2.216811602        -1.491119690        -1.672645908    
H         0.7737354839        -1.066779069        -1.264567641    
H         -1.977028010         2.201977810       -0.1733930621E-01
H        -0.5011075471         1.667643954       -0.7712343785E-01
H         -1.329867564       -0.2074320745       -0.9868902281    
H         -1.737188705        -1.371844112        -1.942395172    
H         -1.396550842        0.7674870125E-02     1.335354877    
H         -1.177345507        -1.425573257        0.8537534923    
    18
Energy=    -44.9777086514161    
O          1.667005383       -0.3432460968         1.770535730    
O          1.265705533         1.773719775       -0.2164845443E-01
O          1.727209831       -0.8728732057        -1.123156531    
O         -1.458216083         1.392400199       -0.9758490881E-01
O         -1.073799855        -1.109972684        -1.301748794    
O         -1.151775761       -0.8799190148         1.655162512    
H         0.7396136883       -0.5989502204         1.954070889    
H          1.848725832       -0.7022809384        0.8840733581    
H          1.594921473         1.138508581       -0.6849416027    
H          1.469718628         1.323303468        0.8304360747    
H          2.213712550        -1.495007771        -1.670729507    
H         0.7714409599        -1.065971278        -1.264342230    
H         -1.976486486         2.198721621       -0.1212791255E-01
H        -0.4992257400         1.667584078       -0.7783782659E-01
H         -1.332892623       -0.2088493164       -0.9887814015    
H         -1.737362315        -1.370741669        -1.947757668    
H         -1.396710149        0.7331463593E-02     1.332023228    
H         -1.175577672        -1.427253176        0.8552158115    
    18
Energy=    -44.9726069992777    
O          1.668292861       -0.3458324617         1.771620001    
O          1.263911993         1.773480114       -0.2290429266E-01
O          1.727516790       -0.8725206265        -1.124415452    
O         -1.457335812         1.391634751       -0.9668996861E-01
O         -1.074417931        -1.110708628        -1.301878185    
O         -1.154665128       -0.8784478573         1.655953933    
H         0.7401706114       -0.5995658460         1.953387613    
H          1.849562569       -0.7008289012        0.8838113205    
H          1.598815107         1.140085651       -0.6850214605    
H          1.469382843         1.325648361        0.8299244339    
H          2.213006685        -1.496831861        -1.670741771    
H         0.7713912036        -1.066188335        -1.263544927    
H         -1.976864913         2.196649575       -0.9351793225E-02
H        -0.4988319879         1.668092519       -0.7823121657E-01
H         -1.333673354       -0.2092459084       -0.9893318132    
H         -1.736165901        -1.370795055        -1.950109760    
H         -1.398926623        0.7998669170E-02     1.331672669    
H         -1.175161817        -1.426120346        0.8567114368    
    18
Energy=    -44.9678406798202    
O          1.668628966       -0.3475228331         1.773413449    
O          1.261148761         1.772773484       -0.2331580220E-01
O          1.728743236       -0.8713630281        -1.128934312    
O         -1.456734345         1.391298833       -0.9570329179E-01
O         -1.074495965        -1.111434692        -1.301090429    
O         -1.155016643       -0.8767086476         1.657197500    
H         0.7399807307       -0.5988300870         1.955333175    
H          1.848255383       -0.7011430486        0.8843436335    
H          1.601450435         1.141720134       -0.6843883041    
H          1.468902492         1.325021036        0.8288302766    
H          2.212253479        -1.499051510        -1.671812114    
H         0.7726900881        -1.066258053        -1.265608887    
H         -1.977294677         2.195743150       -0.7424247736E-02
H        -0.4985332212         1.668818235       -0.7857558566E-01
H         -1.334108003       -0.2098340471       -0.9881579804    
H         -1.733775808        -1.371566685        -1.951471913    
H         -1.401000358        0.9489132311E-02     1.330776691    
H         -1.175087356        -1.424647559        0.8574489095    
    18
Energy=    -44.9605581858089    
O          1.667113289       -0.3465568521         1.775940611    
O          1.259416684         1.773001127       -0.2198989498E-01
O          1.729717910       -0.8700395722        -1.135082488    
O         -1.455455565         1.391623461       -0.9469405398E-01
O         -1.074858326        -1.113018660        -1.300194975    
O         -1.152781335       -0.8743078916         1.657738571    
H         0.7362482680       -0.5955987844         1.955191695    
H          1.848401299       -0.7016641979        0.8873270936    
H          1.602392957         1.144060479       -0.6836627426    
H          1.467561207         1.322034550        0.8285726199    
H          2.210244202        -1.503661757        -1.672864648    
H         0.7730240653        -1.064895091        -1.269531238    
H         -1.976401444         2.195413986       -0.4830401449E-02
H        -0.4979563302         1.668679422       -0.7843099100E-01
H         -1.335530927       -0.2108844973       -0.9860914060    
H         -1.731386795        -1.372203784        -1.953774375    
H         -1.399994950        0.1008659248E-01     1.327133537    
H         -1.173747014        -1.425564716        0.8601038560    
    18
Energy=    -44.9385701716825    
O          1.665680968       -0.3327271559         1.785751804    
O          1.265358363         1.777702180       -0.1902275937E-01
O          1.721134648       -0.8707333941        -1.137629289    
O         -1.448796748         1.388890154       -0.9372338506E-01
O         -1.082163195        -1.113431731        -1.308190821    
O         -1.140315228       -0.8784543323         1.651657279    
H         0.7335545667       -0.5818580225         1.963141827    
H          1.849843274       -0.6951824634        0.9001681177    
H          1.599974878         1.145469768       -0.6818374103    
H          1.468136998         1.321235703        0.8308097124    
H          2.198456913        -1.513161423        -1.665880923    
H         0.7643780263        -1.060848156        -1.277600030    
H         -1.970028314         2.192219421        0.1925446863E-02
H        -0.4920160376         1.666590221       -0.7920767903E-01
H         -1.345703547       -0.2142765234       -0.9869610468    
H         -1.736997907        -1.369254507        -1.964237666    
H         -1.387097855        0.3164882905E-02     1.311201566    
H         -1.167392605        -1.438840808        0.8604960240    
    18
Energy=    -44.9336226582644    
O          1.665409862       -0.3311795826         1.787077477    
O          1.266173555         1.779070984       -0.1882584366E-01
O          1.720047978       -0.8707565881        -1.138076470    
O         -1.448036811         1.388331752       -0.9358581517E-01
O         -1.083374682        -1.113255774        -1.309207257    
O         -1.138664041       -0.8787618050         1.650834482    
H         0.7327841622       -0.5799671145         1.963587109    
H          1.850338319       -0.6942332490        0.9019230811    
H          1.599737070         1.145601722       -0.6817794489    
H          1.467980311         1.320780550        0.8314956426    
H          2.196867837        -1.514744362        -1.665063579    
H         0.7632640511        -1.060262492        -1.278588880    
H         -1.969185058         2.191876714        0.2999986924E-02
H        -0.4910485534         1.666319726       -0.7924424229E-01
H         -1.346992202       -0.2150728051       -0.9871093412    
H         -1.737430749        -1.368855563        -1.965570634    
H         -1.385399602        0.2247944363E-02     1.308995399    
H         -1.166464250        -1.440636244        0.8609991018    
    18
Energy=    -44.9056168021732    
O          1.664153816       -0.3171600070         1.794601440    
O          1.275213325         1.784206521       -0.1613238906E-01
O          1.709430206       -0.8734131047        -1.133994655    
O         -1.441486430         1.385145805       -0.9334766988E-01
O         -1.091095733        -1.112787802        -1.318724778    
O         -1.128623150       -0.8846107571         1.644397227    
H         0.7312708380       -0.5682111453         1.966545373    
H          1.855220523       -0.6856768377        0.9135353713    
H          1.596476198         1.146358678       -0.6802874086    
H          1.468752794         1.323443792        0.8341956553    
H          2.185481080        -1.522254667        -1.656091047    
H         0.7527475369        -1.056190706        -1.282413652    
H         -1.962427498         2.188196855        0.9232233248E-02
H        -0.4848213768         1.663838604       -0.7989033483E-01
H         -1.357355310       -0.2179080738       -0.9899864234    
H         -1.745747037        -1.365018822        -1.976141737    
H         -1.371444048       -0.5851527528E-02     1.293810196    
H         -1.159738538        -1.455602990        0.8615533676    
    18
Energy=    -44.8886367578132    
O          1.663582429       -0.3104341335         1.797393828    
O          1.281143014         1.787532704       -0.1510350215E-01
O          1.703292958       -0.8756632382        -1.128943418    
O         -1.438288042         1.383153179       -0.9356451692E-01
O         -1.095374174        -1.111982899        -1.324176678    
O         -1.125071471       -0.8881615075         1.641174561    
H         0.7309580840       -0.5632557092         1.965159561    
H          1.859545448       -0.6803074098        0.9186427365    
H          1.594681661         1.146431291       -0.6798019947    
H          1.469027044         1.326267967        0.8359512076    
H          2.179979020        -1.525328859        -1.650721854    
H         0.7465798006        -1.054093195        -1.282211605    
H         -1.958932856         2.186147873        0.1231721755E-01
H        -0.4814899011         1.662418235       -0.8010022667E-01
H         -1.362571140       -0.2193259422       -0.9923840233    
H         -1.750886758        -1.362703684        -1.981501761    
H         -1.364056422       -0.1032159843E-01     1.286530403    
H         -1.156111497        -1.463869258        0.8622008333    
    18
Energy=    -44.8803808428505    