    38
Energy=    -170.779034297732    
AX        0.4342697701        0.3331780087       -0.7148279746E-01
AX         1.535680364        0.4546432537        0.1626942664E-01
AX        0.3190714165         1.430692946        0.8169754563E-02
AX       -0.5537753159        0.7517758777        0.1487294678    
AX        -1.652271286        0.6489734136        0.5656233572E-01
AX       -0.6864974488         1.845112886        0.2063438470    
AX       -0.4342698633       -0.3331779127        0.7148267641E-01
AX        -1.535680374       -0.4546431051       -0.1626957108E-01
AX       -0.3190717555        -1.430692796       -0.8169963523E-02
AX        0.5537752905       -0.7517757905       -0.1487294109    
AX         1.652271321       -0.6489732550       -0.5656218843E-01
AX        0.6864972102        -1.845112756       -0.2063432903    
AX       -0.6167326910E-02    0.2041678248        0.9231640152    
AX        0.9869726721       -0.2092078604        0.7079532411    
AX        -1.099224946        0.9098781140E-01    0.8416075505    
AX       -0.1273857771         1.300345273         1.009558406    
AX        0.1117161320       -0.8894809434        0.8458273660    
AX        0.8691052389        0.8806593118        0.7860347743    
AX        -1.224370302         1.188407185        0.9199943095    
AX       -0.9836575870        -1.006666030        0.7644086713    
AX         1.108584698        -1.302920999        0.6573234349    
AX        0.6167332461E-02   -0.2041678963       -0.9231641095    
AX         1.099224975       -0.9098783968E-01   -0.8416075140    
AX       -0.9869727115        0.2092080911       -0.7079532788    
AX       -0.1117162537        0.8894808744       -0.8458275572    
AX        0.1273858471        -1.300345343        -1.009558307    
AX        0.9836574152         1.006666064       -0.7644087833    
AX        -1.108584600         1.302921305       -0.6573231426    
AX       -0.8691052927       -0.8806590708       -0.7860351232    
AX         1.224370351        -1.188407352       -0.9199939049    
AX        0.4334010335        0.7252145133         1.790118576    
AX       -0.6685154287        0.6325524299         1.706091477    
AX       -0.5416445406       -0.4616535267         1.627225646    
AX        0.5619660093       -0.3676297081         1.705192032    
AX        0.5416445469        0.4616533245        -1.627225732    
AX       -0.5619660036        0.3676292985        -1.705192177    
AX       -0.4334005844       -0.7252148513        -1.790118834    
AX        0.6685157733       -0.6325526556        -1.706091322    
    38
Energy=    -170.778705444022    
AX        0.4344612161        0.3332154368       -0.7159185214E-01
AX         1.535885147        0.4544206411        0.1589431746E-01
AX        0.3192079361         1.430535386        0.7997462162E-02
AX       -0.5538762817        0.7516955750        0.1484425208    
AX        -1.652115950        0.6495185744        0.5631864811E-01
AX       -0.6869991526         1.844444224        0.2061142054    
AX       -0.4344614110       -0.3332152416        0.7159157797E-01
AX        -1.535885133       -0.4544202805       -0.1589468991E-01
AX       -0.3192087802        -1.430535009       -0.7997968930E-02
AX        0.5538761739       -0.7516953365       -0.1484423450    
AX         1.652116056       -0.6495182279       -0.5631828955E-01
AX        0.6869986051        -1.844443865       -0.2061128213    
AX       -0.6055007886E-02    0.2038741701        0.9231784674    
AX        0.9870652702       -0.2094731284        0.7078628943    
AX        -1.099084857        0.9096220236E-01    0.8414904286    
AX       -0.1276301463         1.299854127         1.009384058    
AX        0.1117385819       -0.8893307237        0.8460804155    
AX        0.8692164765        0.8805273127        0.7858263123    
AX        -1.224655615         1.188174501        0.9201028543    
AX       -0.9839139145        -1.006391874        0.7647108859    
AX         1.108266760        -1.302747764        0.6583608066    
AX        0.6055066002E-02   -0.2038743596       -0.9231787141    
AX         1.099084916       -0.9096226098E-01   -0.8414903460    
AX       -0.9870653805        0.2094737283       -0.7078630048    
AX       -0.1117389047        0.8893305568       -0.8460809180    
AX        0.1276303221        -1.299854303        -1.009383810    
AX        0.9839134636         1.006391950       -0.7647111308    
AX        -1.108266548         1.302748544       -0.6583600169    
AX       -0.8692166014       -0.8805267208       -0.7858271762    
AX         1.224655732        -1.188174889       -0.9201019173    
AX        0.4329788566        0.7244664039         1.790000137    
AX       -0.6688507268        0.6323698836         1.706128894    
AX       -0.5411219585       -0.4614758695         1.627501210    
AX        0.5627718926       -0.3682908891         1.704844720    
AX        0.5411219859        0.4614753900        -1.627501380    
AX       -0.5627718305        0.3682898342        -1.704845121    
AX       -0.4329777831       -0.7244672877        -1.790000777    
AX        0.6688515249       -0.6323704103        -1.706128537    
    38
Energy=    -170.777493143546    
AX        0.4346214133        0.3335584899       -0.7146261532E-01
AX         1.535646547        0.4533972420        0.1545783341E-01
AX        0.3190006463         1.430646828        0.8099063198E-02
AX       -0.5541328640        0.7514732418        0.1484632913    
AX        -1.651830389        0.6506656062        0.5660617549E-01
AX       -0.6882141202         1.843155537        0.2056003940    
AX       -0.4346216513       -0.3335582521        0.7146227805E-01
AX        -1.535646573       -0.4533968658       -0.1545822335E-01
AX       -0.3190015915        -1.430646404       -0.8099648144E-02
AX        0.5541327453       -0.7514729522       -0.1484631331    
AX         1.651830458       -0.6506652328       -0.5660575424E-01
AX        0.6882135150        -1.843155123       -0.2055988030    
AX       -0.6309184626E-02    0.2036493917        0.9232026427    
AX        0.9870035290       -0.2090927737        0.7075128908    
AX        -1.099045489        0.9172161921E-01    0.8419996027    
AX       -0.1282532762         1.298914927         1.009160590    
AX        0.1113317852       -0.8892425405        0.8457678066    
AX        0.8690966819        0.8805513142        0.7860515856    
AX        -1.225257243         1.188657128        0.9210692028    
AX       -0.9835915558        -1.005452233        0.7652658227    
AX         1.108163963        -1.302129593        0.6596949965    
AX        0.6309211189E-02   -0.2036495889       -0.9232029305    
AX         1.099045564       -0.9172169388E-01   -0.8419994969    
AX       -0.9870036666        0.2090934530       -0.7075130274    
AX       -0.1113321527        0.8892423662       -0.8457683843    
AX        0.1282534710        -1.298915122        -1.009160314    
AX        0.9835911049         1.005452334       -0.7652661070    
AX        -1.108163724         1.302130472       -0.6596940642    
AX       -0.8690968346       -0.8805506396       -0.7860525532    
AX         1.225257370        -1.188657576       -0.9210681384    
AX        0.4320904959        0.7228511116         1.789947929    
AX       -0.6695934235        0.6329936295         1.706895628    
AX       -0.5406089255       -0.4605563001         1.628110317    
AX        0.5634576203       -0.3694919907         1.704334918    
AX        0.5406090020        0.4605557810        -1.628110532    
AX       -0.5634575203        0.3694907724        -1.704335371    
AX       -0.4320892757       -0.7228521414        -1.789948651    
AX        0.6695943365       -0.6329942221        -1.706895221    
    38
Energy=    -170.775718015995    
AX        0.4342591416        0.3333517698       -0.7135270087E-01
AX         1.535136555        0.4525879043        0.1530091457E-01
AX        0.3184626207         1.430855373        0.8498452913E-02
AX       -0.5544884902        0.7514453316        0.1487826744    
AX        -1.651830505        0.6519124226        0.5697933408E-01
AX       -0.6893956843         1.842907400        0.2055406962    
AX       -0.4342594343       -0.3333514771        0.7135228682E-01
AX        -1.535136641       -0.4525875290       -0.1530129892E-01
AX       -0.3184636072        -1.430854908       -0.8499093335E-02
AX        0.5544883595       -0.7514450093       -0.1487825401    
AX         1.651830523       -0.6519120383       -0.5697886076E-01
AX        0.6893950420        -1.842906950       -0.2055389533    
AX       -0.6726818150E-02    0.2036834679        0.9234343409    
AX        0.9869440221       -0.2089922666        0.7075855834    
AX        -1.099481429        0.9251939168E-01    0.8428719691    
AX       -0.1286482000         1.299215539         1.009652423    
AX        0.1113626865       -0.8893144420        0.8456546596    
AX        0.8686494911        0.8806690242        0.7865794321    
AX        -1.226005454         1.189584783        0.9223178224    
AX       -0.9830428492        -1.004681610        0.7654774919    
AX         1.108216537        -1.302056033        0.6607875688    
AX        0.6726817265E-02   -0.2036836587       -0.9234346611    
AX         1.099481504       -0.9251946623E-01   -0.8428718636    
AX       -0.9869442180        0.2089929765       -0.7075857286    
AX       -0.1113630462        0.8893142877       -0.8456553001    
AX        0.1286484056        -1.299215745        -1.009652132    
AX        0.9830424330         1.004681737       -0.7654778184    
AX        -1.108216264         1.302056962       -0.6607865376    
AX       -0.8686496832       -0.8806683106       -0.7865804587    
AX         1.226005578        -1.189585296       -0.9223166569    
AX        0.4314179664        0.7220939418         1.790607911    
AX       -0.6703865036        0.6339662213         1.708080687    
AX       -0.5402493812       -0.4596691035         1.628991987    
AX        0.5641671187       -0.3703276229         1.704320079    
AX        0.5402495145        0.4596685675        -1.628992246    
AX       -0.5641669909        0.3703262925        -1.704320543    
AX       -0.4314166380       -0.7220950781        -1.790608683    
AX        0.6703875218       -0.6339668514        -1.708080237    
    38
Energy=    -170.774297330734    
AX        0.4338899321        0.3332160817       -0.7118763374E-01
AX         1.534913185        0.4522326488        0.1534599158E-01
AX        0.3182759269         1.431000375        0.8515783109E-02
AX       -0.5545634478        0.7513257008        0.1490766423    
AX        -1.651980899        0.6524432600        0.5723782914E-01
AX       -0.6897570349         1.843093747        0.2061277426    
AX       -0.4338902655       -0.3332157485        0.7118716226E-01
AX        -1.534913303       -0.4522322811       -0.1534636454E-01
AX       -0.3182769233        -1.430999899       -0.8516443270E-02
AX        0.5545633340       -0.7513253712       -0.1490765363    
AX         1.651980882       -0.6524428731       -0.5723733505E-01
AX        0.6897563851        -1.843093286       -0.2061259474    
AX       -0.7032010989E-02    0.2037940483        0.9234027590    
AX        0.9871305631       -0.2087135521        0.7075368277    
AX        -1.099754528        0.9292244540E-01    0.8433500866    
AX       -0.1289395304         1.299363682         1.009963181    
AX        0.1110955833       -0.8895125942        0.8455894832    
AX        0.8686163761        0.8806604456        0.7868139613    
AX        -1.226427272         1.189997540        0.9230338672    
AX       -0.9827216622        -1.004424172        0.7655707491    
AX         1.108065536        -1.302344876        0.6607124061    
AX        0.7031978343E-02   -0.2037942312       -0.9234030724    
AX         1.099754607       -0.9292252370E-01   -0.8433499758    
AX       -0.9871307768        0.2087142562       -0.7075369777    
AX       -0.1110959346        0.8895124552       -0.8455901321    
AX        0.1289397386        -1.299363890        -1.009962887    
AX        0.9827212738         1.004424311       -0.7655710927    
AX        -1.108065244         1.302345817       -0.6607113436    
AX       -0.8686165832       -0.8806597192       -0.7868150032    
AX         1.226427390        -1.189998077       -0.9230326616    
AX        0.4309153951        0.7224215055         1.790995178    
AX       -0.6708973107        0.6344679979         1.708670834    
AX       -0.5402419122       -0.4592960967         1.629473664    
AX        0.5643338927       -0.3700545529         1.704417548    
AX        0.5402420765        0.4592955622        -1.629473949    
AX       -0.5643337579        0.3700531851        -1.704418007    
AX       -0.4309140313       -0.7224226805        -1.790995963    
AX        0.6708983726       -0.6344686409        -1.708670371    
    38
Energy=    -170.766016980368    
AX        0.4329200557        0.3311695291       -0.7194919224E-01
AX         1.534786022        0.4517307192        0.1527109183E-01
AX        0.3173479596         1.431328850        0.9008028333E-02
AX       -0.5548523271        0.7505272409        0.1500720231    
AX        -1.652417587        0.6529652864        0.5817675495E-01
AX       -0.6893179052         1.844893591        0.2099637869    
AX       -0.4329205556       -0.3311690275        0.7194849064E-01
AX        -1.534786162       -0.4517303824       -0.1527143225E-01
AX       -0.3173489507        -1.431328421       -0.9008719930E-02
AX        0.5548523646       -0.7505269742       -0.1500720586    
AX         1.652417481       -0.6529648998       -0.5817624220E-01
AX        0.6893172704        -1.844893119       -0.2099619974    
AX       -0.8279666110E-02    0.2039542745        0.9230425787    
AX        0.9871741560       -0.2094280507        0.7070137469    
AX        -1.099504585        0.9356839691E-01    0.8436301449    
AX       -0.1288541210         1.299955897         1.010321564    
AX        0.1110611621       -0.8888072671        0.8461255351    
AX        0.8679685589        0.8807088125        0.7877024368    
AX        -1.227851995         1.190239620        0.9244605824    
AX       -0.9824600781        -1.004056663        0.7658357491    
AX         1.106682238        -1.304037621        0.6574780794    
AX        0.8279487721E-02   -0.2039544027       -0.9230427483    
AX         1.099504691       -0.9356850266E-01   -0.8436299969    
AX       -0.9871742838        0.2094286496       -0.7070138850    
AX       -0.1110614954        0.8888071299       -0.8461260483    
AX        0.1288543410        -1.299956117        -1.010321253    
AX        0.9824597390         1.004056806       -0.7658360862    
AX        -1.106681918         1.304038560       -0.6574770272    
AX       -0.8679687668       -0.8807080430       -0.7877034423    
AX         1.227852085        -1.190240158       -0.9244593417    
AX        0.4293223723        0.7262534767         1.791957352    
AX       -0.6724974331        0.6348855064         1.709849423    
AX       -0.5408631061       -0.4585894755         1.630151515    
AX        0.5635848998       -0.3662295175         1.704636360    
AX        0.5408633279        0.4585889719        -1.630151863    
AX       -0.5635847851        0.3662281433        -1.704636797    
AX       -0.4293210252       -0.7262546602        -1.791958133    
AX        0.6724985335       -0.6348861595        -1.709848978    
    38
Energy=    -170.760182351918    
AX        0.4324090548        0.3321771402       -0.7087505616E-01
AX         1.533247724        0.4511883130        0.1563162263E-01
AX        0.3155213499         1.428855215        0.9443679297E-02
AX       -0.5544530931        0.7546636039        0.1496629142    
AX        -1.651673201        0.6541155363        0.5731501602E-01
AX       -0.6923271404         1.843664655        0.2048770942    
AX       -0.4324093295       -0.3321768665        0.7087466468E-01
AX        -1.533247901       -0.4511879213       -0.1563202833E-01
AX       -0.3155224027        -1.428854625       -0.9444386383E-02
AX        0.5544528303       -0.7546631888       -0.1496627183    
AX         1.651673180       -0.6541151164       -0.5731447111E-01
AX        0.6923264242        -1.843664161       -0.2048750893    
AX       -0.5722343322E-02    0.2059327027        0.9256848165    
AX        0.9855802344       -0.2104502156        0.7080914214    
AX        -1.100883890        0.9376431316E-01    0.8447439509    
AX       -0.1292730099         1.302426159         1.012364496    
AX        0.1131312364       -0.8882612552        0.8457212415    
AX        0.8655103243        0.8788667039        0.7872447649    
AX        -1.227143390         1.191761810        0.9245764077    
AX       -0.9811647918        -1.003271245        0.7651315469    
AX         1.109130832        -1.302824138        0.6633490724    
AX        0.5722406534E-02   -0.2059329165       -0.9256852917    
AX         1.100883964       -0.9376438758E-01   -0.8447438448    
AX       -0.9855805984        0.2104510400       -0.7080916151    
AX       -0.1131316035        0.8882611618       -0.8457220822    
AX        0.1292732258        -1.302426375        -1.012364191    
AX        0.9811643978         1.003271424       -0.7651319490    
AX        -1.109130488         1.302825142       -0.6633478686    
AX       -0.8655105928       -0.8788659720       -0.7872459252    
AX         1.227143519        -1.191762427       -0.9245750857    
AX        0.4308003035        0.7205374333         1.793216140    
AX       -0.6714638586        0.6360827668         1.710424797    
AX       -0.5393064831       -0.4582515807         1.630438541    
AX        0.5659052807       -0.3722119738         1.705509715    
AX        0.5393066686        0.4582509957        -1.630438852    
AX       -0.5659051032        0.3722104493        -1.705510182    
AX       -0.4307987747       -0.7205387399        -1.793216996    
AX        0.6714650375       -0.6360834580        -1.710424270    
    38
Energy=    -170.730296028545    
AX        0.4321667644        0.3310611814       -0.7149301848E-01
AX         1.533714801        0.4520067406        0.1651296755E-01
AX        0.3170648688         1.429222595        0.8882932591E-02
AX       -0.5536317773        0.7515417848        0.1482897155    
AX        -1.649377263        0.6531466868        0.5391391865E-01
AX       -0.6950524770         1.838334058        0.1886945803    
AX       -0.4321671714       -0.3310607740        0.7149244404E-01
AX        -1.533714814       -0.4520062302       -0.1651352508E-01
AX       -0.3170661020        -1.429222069       -0.8883684697E-02
AX        0.5536316737       -0.7515414370       -0.1482895514    
AX         1.649377291       -0.6531461963       -0.5391336058E-01
AX        0.6950516507        -1.838333484       -0.1886924349    
AX       -0.5901665728E-02    0.2038114289        0.9228967565    
AX        0.9858938167       -0.2073883037        0.7094838074    
AX        -1.099222416        0.9360806996E-01    0.8434586639    
AX       -0.1274093308         1.302479423         1.011084383    
AX        0.1124280548       -0.8909335677        0.8437778793    
AX        0.8668623717        0.8794257990        0.7864130259    
AX        -1.223261704         1.191166186        0.9204465424    
AX       -0.9811843397        -1.004537202        0.7648831050    
AX         1.115749908        -1.296977307        0.6784615778    
AX        0.5901659701E-02   -0.2038116673       -0.9228970771    
AX         1.099222514       -0.9360816804E-01   -0.8434585257    
AX       -0.9858939582        0.2073891242       -0.7094839448    
AX       -0.1124284915        0.8909333256       -0.8437785593    
AX        0.1274095773        -1.302479670        -1.011084034    
AX        0.9811836964         1.004537348       -0.7648834747    
AX        -1.115749613         1.296978481       -0.6784602707    
AX       -0.8668625503       -0.8794249141       -0.7864142703    
AX         1.223261812        -1.191166778       -0.9204451242    
AX        0.4382152165        0.7050666171         1.791373808    
AX       -0.6669005062        0.6348054720         1.707258829    
AX       -0.5362380502       -0.4599930445         1.628129972    
AX        0.5703584821       -0.3891310828         1.706055775    
AX        0.5362381856        0.4599923906        -1.628130299    
AX       -0.5703582926        0.3891294237        -1.706056396    
AX       -0.4382135732       -0.7050680078        -1.791374798    
AX        0.6669017509       -0.6348062326        -1.707258334    
    38
Energy=    -170.699378564834    
AX        0.4341620475        0.3326391049       -0.7178799781E-01
AX         1.534703153        0.4530293426        0.1620295310E-01
AX        0.3191891076         1.430015186        0.8846605244E-02
AX       -0.5533978979        0.7499879835        0.1463777934    
AX        -1.648010640        0.6518639393        0.5191589348E-01
AX       -0.6956947300         1.833705063        0.1790808323    
AX       -0.4341623563       -0.3326387961        0.7178756127E-01
AX        -1.534703069       -0.4530287715       -0.1620359055E-01
AX       -0.3191904105        -1.430014680       -0.8847345585E-02
AX        0.5533977757       -0.7499876092       -0.1463775572    
AX         1.648010752       -0.6518634321       -0.5191535721E-01
AX        0.6956938590        -1.833704468       -0.1790786731    
AX       -0.5209646567E-02    0.2017994801        0.9216326441    
AX        0.9857937696       -0.2059750356        0.7102446076    
AX        -1.098132082        0.9246060467E-01    0.8418762938    
AX       -0.1260838526         1.300698904         1.008888112    
AX        0.1123094113       -0.8921281454        0.8427078038    
AX        0.8683465270        0.8808585632        0.7854713734    
AX        -1.220461760         1.190222132        0.9166174226    
AX       -0.9824090299        -1.005323466        0.7648588865    
AX         1.119199535        -1.292518625        0.6866269917    
AX        0.5209687498E-02   -0.2017997731       -0.9216329953    
AX         1.098132175       -0.9246069781E-01   -0.8418761623    
AX       -0.9857938176        0.2059759463       -0.7102447450    
AX       -0.1123099399        0.8921278111       -0.8427084816    
AX        0.1260840994        -1.300699151        -1.008887763    
AX        0.9824082516         1.005323589       -0.7648592309    
AX        -1.119199292         1.292519860       -0.6866256662    
AX       -0.8683466522       -0.8808576413       -0.7854726527    
AX         1.220461885        -1.190222684       -0.9166160177    
AX        0.4423775605        0.6956330487         1.788554709    
AX       -0.6632650024        0.6330258014         1.704611406    
AX       -0.5347833612       -0.4613639589         1.626256632    
AX        0.5721781471       -0.3988590568         1.705342265    
AX        0.5347834304        0.4613632697        -1.626256911    
AX       -0.5721779484        0.3988573809        -1.705342967    
AX       -0.4423758954       -0.6956344371        -1.788555746    
AX        0.6632662090       -0.6330265815        -1.704610927    
    38
Energy=    -170.682267586605    
AX        0.4362015045        0.3347298486       -0.7175167701E-01
AX         1.535926993        0.4539462573        0.1579009736E-01
AX        0.3219786214         1.431908158        0.8495455427E-02
AX       -0.5538639081        0.7476957584        0.1448490753    
AX        -1.647589760        0.6508860840        0.5081662774E-01
AX       -0.6951607863         1.830630255        0.1744617473    
AX       -0.4362017740       -0.3347295792        0.7175129600E-01
AX        -1.535926876       -0.4539456761       -0.1579074967E-01
AX       -0.3219799217        -1.431907675       -0.8496181255E-02
AX        0.5538637866       -0.7476953797       -0.1448488309    
AX         1.647589902       -0.6508855852       -0.5081611120E-01
AX        0.6951599159        -1.830629665       -0.1744596278    
AX       -0.5507794097E-02    0.1993393871        0.9203413126    
AX        0.9869348482       -0.2041418116        0.7108064020    
AX        -1.097633464        0.9149982184E-01    0.8408443332    
AX       -0.1255911737         1.298175327         1.006755292    
AX        0.1112195087       -0.8940125453        0.8422183831    
AX        0.8709360911        0.8829515059        0.7848374409    
AX        -1.218664927         1.189438593        0.9144334779    
AX       -0.9837713404        -1.006101910        0.7650759156    
AX         1.120475297        -1.289423940        0.6903780333    
AX        0.5507838163E-02   -0.1993396886       -0.9203416662    
AX         1.097633551       -0.9149990911E-01   -0.8408442099    
AX       -0.9869348532        0.2041427380       -0.7108065272    
AX       -0.1112200579        0.8940121730       -0.8422190416    
AX        0.1255914170        -1.298175571        -1.006754948    
AX        0.9837705300         1.006102022       -0.7650762439    
AX        -1.120475083         1.289425171       -0.6903767286    
AX       -0.8709361953       -0.8829505836       -0.7848387018    
AX         1.218665056        -1.189439119       -0.9144321051    
AX        0.4443732888        0.6910964605         1.786002941    
AX       -0.6612141111        0.6319881738         1.702786792    
AX       -0.5342845754       -0.4624197417         1.625267604    
AX        0.5726453105       -0.4036966673         1.704056093    
AX        0.5342846199        0.4624190557        -1.625267855    
AX       -0.5726451103        0.4036950224        -1.704056812    
AX       -0.4443716497       -0.6910978188        -1.786003973    
AX        0.6612152802       -0.6319889461        -1.702786329    
    38
Energy=    -170.623923104888    
AX        0.4414214121        0.3379452179       -0.7316887881E-01
AX         1.535870355        0.4544505189        0.1505352919E-01
AX        0.3251684767         1.434511773        0.8717378781E-02
AX       -0.5570419868        0.7466696432        0.1438146895    
AX        -1.646509795        0.6504294758        0.4998397234E-01
AX       -0.6944825124         1.828085661        0.1721340966    
AX       -0.4414215247       -0.3379451059        0.7316871724E-01
AX        -1.535870270       -0.4544499497       -0.1505416081E-01
AX       -0.3251697528        -1.434511230       -0.8718051139E-02
AX        0.5570417950       -0.7466691552       -0.1438144155    
AX         1.646509974       -0.6504289825       -0.4998347108E-01
AX        0.6944816633        -1.828085118       -0.1721319942    
AX       -0.6878468550E-02    0.1965058287        0.9218628552    
AX        0.9884946562       -0.2033702271        0.7110279882    
AX        -1.096629846        0.9013560497E-01    0.8391700085    
AX       -0.1256043689         1.295943189         1.005186226    
AX        0.1102104976       -0.8953349268        0.8427757409    
AX        0.8736758985        0.8860050848        0.7844228812    
AX        -1.216974380         1.189023526        0.9126050390    
AX       -0.9845159847        -1.005804890        0.7646792999    
AX         1.120802363        -1.286835367        0.6921618116    
AX        0.6878513728E-02   -0.1965061702       -0.9218633327    
AX         1.096629924       -0.9013568286E-01   -0.8391698974    
AX       -0.9884946768        0.2033712704       -0.7110281992    
AX       -0.1102111580        0.8953345643       -0.8427764938    
AX        0.1256045871        -1.295943407        -1.005185918    
AX        0.9845152104         1.005805009       -0.7646796416    
AX        -1.120802130         1.286836524       -0.6921605212    
AX       -0.8736760068       -0.8860042420       -0.7844241671    
AX         1.216974529        -1.189024049       -0.9126037068    
AX        0.4450860268        0.6885174276         1.783724077    
AX       -0.6592835096        0.6313330292         1.701297910    
AX       -0.5333841472       -0.4626968443         1.624181112    
AX        0.5724488128       -0.4064158084         1.702456966    
AX        0.5333841656        0.4626961542        -1.624181335    
AX       -0.5724485951        0.4064142014        -1.702457619    
AX       -0.4450843874       -0.6885187613        -1.783725061    
AX        0.6592846384       -0.6313337852        -1.701297435    
    38
Energy=    -170.319668402234    
AX        0.4215486193        0.3263827271       -0.6729307406E-01
AX         1.532390115        0.4521567532        0.1797522051E-01
AX        0.3110232683         1.418297127        0.5828367711E-02
AX       -0.5438591544        0.7543295336        0.1453833990    
AX        -1.647792463        0.6517979001        0.5166414659E-01
AX       -0.7004050595         1.836779655        0.1764314359    
AX       -0.4215490638       -0.3263822831        0.6729244962E-01
AX        -1.532389885       -0.4521560771       -0.1797599924E-01
AX       -0.3110248897        -1.418296803       -0.5829171759E-02
AX        0.5438592500       -0.7543292225       -0.1453832800    
AX         1.647792627       -0.6517973296       -0.5166359264E-01
AX        0.7004040618        -1.836778960       -0.1764291523    
AX        0.2433483848E-02    0.2080364893        0.9179578702    
AX        0.9768374279       -0.2098201052        0.7081575836    
AX        -1.098796332        0.9367001523E-01    0.8432012513    
AX       -0.1302227132         1.307071113         1.016320625    
AX        0.1172343680       -0.8842516909        0.8390935892    
AX        0.8605389995        0.8687826930        0.7829594783    
AX        -1.219793946         1.191634155        0.9174552876    
AX       -0.9795630338        -1.004983834        0.7638403354    
AX         1.122313655        -1.295875591        0.6889682228    
AX       -0.2433601562E-02   -0.2080367770       -0.9179580266    