    60
Energy=    -229.545395168397    
LS        0.9807434298       -0.8330100888         1.219797631    
LS        -1.455541367         1.620676992       -0.2071976371    
LS        0.9885196500E-01    -1.323508996         1.044979591    
LS        0.2090651991        -1.792445045        0.8299440453E-01
LS       -0.4765619002       -0.9376776992        0.2737081113    
LS        0.5539120019       -0.8014810479        0.2085998635    
LS       -0.8642980913        -1.347744892         1.424200635    
LS       -0.2792476298        0.5668869847         1.219863229    
LS         1.770018040       -0.3122783623        -1.003027254    
LS        0.1453834280       -0.4669518331         1.741656029    
LS         1.723074291        -1.385541346        -1.206400450    
LS       -0.7060869635         1.657581125        0.5751980939    
LS        0.7257186320       -0.4489912497       -0.8817491467    
LS       -0.5632768277         1.024302333       -0.2553617519    
LS        0.6293106052        -1.343376077        -1.437421866    
LS       -0.7976069140       -0.3341986691         1.110402172    
LS       -0.6884494877        0.8133343635        -1.242587024    
LS        -1.159507553        0.6975428299        0.5701168917    
LS         1.292965031       -0.4173552719E-01   -0.6450991667E-01
LS        0.5722763059         1.179473956        0.9258563816    
LS         1.143064265        0.6602597614E-01     1.770628979    
LS         1.679131826        -1.694016915         1.410516904    
LS        -1.364965701        0.2635624344        -1.783064062    
LS         1.547673032        0.8941795413         1.254071861    
LS       -0.2848192337        0.1224210868        0.2811004840    
LS        -1.685878506         1.183438897        -1.288349223    
LS         1.445083926        -1.048134239       -0.2928132295    
LS        -1.472113571        0.5732246952       -0.4900846824    
LS        -1.472948810        -1.172820836        0.5752641012    
LS       -0.8349708047        -1.748886899        -1.175374893    
LS       -0.1248405835        -1.065056179       -0.7264145167    
LS        -1.144401614        -1.021272604       -0.5155552738    
LS        -1.258189492       -0.2408778752        0.1065752714    
LS         1.132276753         1.559123962       -0.5691593789    
LS        0.6620174837        0.1368604476        0.7877025734    
LS        0.9343422235         1.296745518        -1.622495745    
LS       -0.8099225305       -0.6337549367        -1.404167304    
LS         1.435806909        0.9437329809        0.2391777793    
LS       -0.2056535920        0.1101212791E-01   -0.7508456549    
LS        -1.654867223       -0.7153453539         1.599169745    
LS         1.168104894        -1.648715814        0.5078675794    
LS        0.1367463476         1.464734241       -0.8958816790    
LS       -0.8860949046E-01     1.496474217         1.689790168    
LS         1.130422294        0.5576267757       -0.8888647234    
LS        0.4631508611        0.7925425980       -0.1140802625    
LS         1.713566199       -0.3414243537E-01    0.8842537605    
LS        0.2743036508        0.5301024108        -1.495164775    
LS        -1.076511675         1.232065048         1.457149435    
LS        0.6615057248        -1.308381027       -0.5353855901    
LS        0.4345075859       -0.5254032968E-01   -0.1628990845    
LS        0.8128138302        -1.687802576         1.351870708    
LS        -1.032598253       -0.1354594281       -0.7292763008    
LS        0.3989936066E-01   -0.4694470578        0.8591269082    
LS       -0.2097284454        -1.258181122        -1.602810076    
LS       -0.5921568583        -1.679968621       -0.2901353128    
LS       -0.1462718475        0.9954191047        0.4860947825    
LS         1.216403567       -0.7440237892        -1.525527819    
LS        -1.589004947         1.493198640        0.6898588475    
LS         1.383456361       -0.7197026337        0.4849040835    
LS       -0.4895281994        0.1011065333        -1.675892413    
    60
Energy=    -229.545159645751    
LS        0.9805487876       -0.8326923717         1.219730494    
LS        -1.455453355         1.620545338       -0.2073491680    
LS        0.9900696120E-01    -1.323728044         1.045105373    
LS        0.2092645327        -1.792346971        0.8297367372E-01
LS       -0.4762216025       -0.9377931065        0.2736804090    
LS        0.5541099228       -0.8012955152        0.2087699220    
LS       -0.8643439025        -1.347851939         1.423863192    
LS       -0.2791077761        0.5665137558         1.220466656    
LS         1.769603854       -0.3124234669        -1.003203781    
LS        0.1452679730       -0.4669805334         1.742074405    
LS         1.723003542        -1.385405411        -1.206520772    
LS       -0.7058213364         1.657425305        0.5749902396    
LS        0.7255202910       -0.4487475194       -0.8817944485    
LS       -0.5632895344         1.023847118       -0.2552372479    
LS        0.6292860073        -1.343416886        -1.437285058    
LS       -0.7976231264       -0.3343997071         1.110360174    
LS       -0.6886254453        0.8136969734        -1.242527404    
LS        -1.159425241        0.6974127080        0.5700775198    
LS         1.293118927       -0.4167011620E-01   -0.6450556529E-01
LS        0.5720033106         1.179902567        0.9257991766    
LS         1.142884376        0.6620238518E-01     1.770679956    
LS         1.679372124        -1.694138697         1.410342238    
LS        -1.364851169        0.2634296140        -1.782944530    
LS         1.547497161        0.8941243246         1.254117750    
LS       -0.2844584333        0.1221449441        0.2816084341    
LS        -1.686075996         1.183553579        -1.288645168    
LS         1.445154811        -1.048036821       -0.2929484984    
LS        -1.472347309        0.5734103609       -0.4903181466    
LS        -1.472694177        -1.172833269        0.5749301742    
LS       -0.8352349803        -1.748610232        -1.175741705    
LS       -0.1248146633        -1.065015280       -0.7266049848    
LS        -1.144255444        -1.021273904       -0.5155054356    
LS        -1.257788407       -0.2406746988        0.1061582176    
LS         1.132242851         1.559261068       -0.5693237652    
LS        0.6621764829        0.1372185578        0.7877869278    
LS        0.9340012395         1.296656944        -1.622588309    
LS       -0.8101285590       -0.6341069826        -1.404351180    
LS         1.435780334        0.9438591211        0.2391933140    
LS       -0.2060706676        0.1099999844E-01   -0.7503048821    
LS        -1.655049984       -0.7153777011         1.598993699    
LS         1.168237715        -1.648541442        0.5078242733    
LS        0.1364481819         1.464829323       -0.8957131985    
LS       -0.8879970037E-01     1.496379055         1.689959462    
LS         1.130475757        0.5577574811       -0.8887426617    
LS        0.4631198073        0.7925782699       -0.1139871696    
LS         1.713778021       -0.3413339435E-01    0.8841174387    
LS        0.2741628798        0.5300086224        -1.494318913    
LS        -1.076515858         1.231908195         1.456929238    
LS        0.6615205638        -1.308224823       -0.5352141187    
LS        0.4346262730       -0.5245350924E-01   -0.1629218970    
LS        0.8131705168        -1.687564037         1.351960686    
LS        -1.033090860       -0.1349969660       -0.7302650541    
LS        0.4029104737E-01   -0.4695554209        0.8596586558    
LS       -0.2097621212        -1.258253748        -1.603021068    
LS       -0.5918366391        -1.680381508       -0.2907224482    
LS       -0.1465073568        0.9946986404        0.4863542790    
LS         1.216134432       -0.7439093031        -1.525594015    
LS        -1.588738937         1.493105686        0.6896936422    
LS         1.383681770       -0.7197435120        0.4849732741    
LS       -0.4895199608        0.1010312140        -1.674972342    
    60
Energy=    -229.544133267847    
LS        0.9803950682       -0.8325731542         1.219786558    
LS        -1.455405328         1.620819207       -0.2071768313    
LS        0.9894786962E-01    -1.323595302         1.045106856    
LS        0.2091686418        -1.792170124        0.8299147438E-01
LS       -0.4764684741       -0.9377151386        0.2737615611    
LS        0.5540976598       -0.8013226520        0.2088119680    
LS       -0.8642238648        -1.347860968         1.423564861    
LS       -0.2792589580        0.5664207161         1.221063280    
LS         1.769554544       -0.3121965700        -1.002947783    
LS        0.1452785413       -0.4670816348         1.742170600    
LS         1.723541352        -1.385185495        -1.206935134    
LS       -0.7057672482         1.657138300        0.5747636348    
LS        0.7254060001       -0.4486048116       -0.8816989504    
LS       -0.5632797962         1.023283150       -0.2553106561    
LS        0.6294958959        -1.343210947        -1.437180435    
LS       -0.7980305158       -0.3340390761         1.110150008    
LS       -0.6885145347        0.8133080797        -1.242620408    
LS        -1.159353640        0.6974579289        0.5700314779    
LS         1.292994484       -0.4201714444E-01   -0.6447563975E-01
LS        0.5717280298         1.180069714        0.9259107861    
LS         1.143302006        0.6609221524E-01     1.770520842    
LS         1.679383503        -1.694113158         1.410203504    
LS        -1.365219221        0.2633334942        -1.782479518    
LS         1.547540607        0.8938774155         1.254135443    
LS       -0.2841554565        0.1220961581        0.2821342467    
LS        -1.685982351         1.183852325        -1.288843519    
LS         1.445186913        -1.048253799       -0.2927882716    
LS        -1.472987601        0.5739853334       -0.4902173379    
LS        -1.472451310        -1.172977024        0.5743724664    
LS       -0.8349700761        -1.748915305        -1.175714166    
LS       -0.1248658546        -1.064884256       -0.7263514663    
LS        -1.143999259        -1.021279369       -0.5156913906    
LS        -1.257358640       -0.2402009836        0.1055403623    
LS         1.132408845         1.559315702       -0.5692274946    
LS        0.6626466541        0.1375469513        0.7881451303    
LS        0.9340295569         1.296864661        -1.622500485    
LS       -0.8102605509       -0.6342910902        -1.404441491    
LS         1.435251574        0.9437220407        0.2394420478    
LS       -0.2063292265        0.1085759602E-01   -0.7498869972    
LS        -1.655052820       -0.7154940417         1.598565325    
LS         1.168069435        -1.648453259        0.5078859010    
LS        0.1364967923         1.465162000       -0.8956912744    
LS       -0.8863135147E-01     1.496377808         1.689980948    
LS         1.130306165        0.5577428800       -0.8887325755    
LS        0.4628098676        0.7927109807       -0.1142132010    
LS         1.714265486       -0.3421940581E-01    0.8837132127    
LS        0.2743480943        0.5297165146        -1.494261679    
LS        -1.076451578         1.231900906         1.456895454    
LS        0.6617297225        -1.308046598       -0.5353044802    
LS        0.4345897581       -0.5234855020E-01   -0.1625879027    
LS        0.8129052739        -1.687330365         1.352148237    
LS        -1.033310411       -0.1339944733       -0.7312451868    
LS        0.4040947883E-01   -0.4691724105        0.8599563033    
LS       -0.2097394027        -1.258493932        -1.602784784    
LS       -0.5918775467        -1.680785182       -0.2910719104    
LS       -0.1468229460        0.9940419341        0.4865942419    
LS         1.216349624       -0.7438534677        -1.525703023    
LS        -1.588983982         1.492600811        0.6897013989    
LS         1.383783088       -0.7203253656        0.4849006119    
LS       -0.4896306737        0.1006345461        -1.674864795    
    60
Energy=    -229.543116136456    
LS        0.9803511734       -0.8326101762         1.219779040    
LS        -1.455469329         1.620940332       -0.2070237130    
LS        0.9866633408E-01    -1.323381034         1.045093942    
LS        0.2089630047        -1.791850330        0.8296120831E-01
LS       -0.4765349616       -0.9374444348        0.2739582012    
LS        0.5537745976       -0.8010193618        0.2087073128    
LS       -0.8642983011        -1.348088540         1.423856156    
LS       -0.2788473588        0.5663549896         1.221393258    
LS         1.768987355       -0.3123808925        -1.002773684    
LS        0.1453027942       -0.4673615337         1.742478881    
LS         1.723744394        -1.385210868        -1.206754904    
LS       -0.7061546276         1.657449425        0.5748084268    
LS        0.7254059920       -0.4488630629       -0.8818077769    
LS       -0.5631508523         1.023222822       -0.2552833130    
LS        0.6297418988        -1.343568738        -1.436999762    
LS       -0.7977050929       -0.3340824841         1.110301400    
LS       -0.6887591384        0.8123797478        -1.242293061    
LS        -1.159016342        0.6975056730        0.5700455386    
LS         1.293271103       -0.4220513914E-01   -0.6444724459E-01
LS        0.5718111954         1.180017700        0.9256862013    
LS         1.143586416        0.6616141630E-01     1.770302955    
LS         1.678991711        -1.694181666         1.410143613    
LS        -1.365467344        0.2631090083        -1.782389733    
LS         1.547692704        0.8936106018         1.253772778    
LS       -0.2837045500        0.1224527910        0.2826209998    
LS        -1.686122826         1.183737045        -1.289261274    
LS         1.445359293        -1.048460991       -0.2929606683    
LS        -1.473810829        0.5753874418       -0.4897463548    
LS        -1.472549852        -1.172347106        0.5743964626    
LS       -0.8348051346        -1.749667499        -1.175475097    
LS       -0.1247619306        -1.065402178       -0.7262608744    
LS        -1.144233465        -1.021260768       -0.5159998974    
LS        -1.256660664       -0.2394487451        0.1037867497    
LS         1.132336989         1.559314375       -0.5694162924    
LS        0.6633131210        0.1375669754        0.7881443348    
LS        0.9339780454         1.296176606        -1.622881749    
LS       -0.8103213818       -0.6348496126        -1.404331227    
LS         1.434910869        0.9438128092        0.2394713191    
LS       -0.2060339557        0.1010041162E-01   -0.7492837048    
LS        -1.654988105       -0.7155337362         1.598614692    
LS         1.167987190        -1.648425978        0.5079809105    
LS        0.1365247988         1.464932636       -0.8957133555    
LS       -0.8860156346E-01     1.496236863         1.689901736    
LS         1.130248342        0.5577541787       -0.8885966434    
LS        0.4626896018        0.7932924617       -0.1140506245    
LS         1.715381490       -0.3459414286E-01    0.8831629882    
LS        0.2744065467        0.5291610393        -1.493576989    
LS        -1.076360879         1.231704959         1.457005508    
LS        0.6614530423        -1.307886348       -0.5353419371    
LS        0.4350890167       -0.5185740627E-01   -0.1623477941    
LS        0.8126118321        -1.687562541         1.352129786    
LS        -1.033781005       -0.1310055196       -0.7335229294    
LS        0.4081666113E-01   -0.4690184142        0.8600950006    
LS       -0.2095135464        -1.258817111        -1.602643229    
LS       -0.5921019498        -1.680866899       -0.2906548620    
LS       -0.1471270545        0.9945638428        0.4870272892    
LS         1.216358316       -0.7439763428        -1.525743726    
LS        -1.589249750         1.492671822        0.6898437933    
LS         1.383345460       -0.7204504608        0.4850474018    
LS       -0.4899315854        0.9998640294E-01    -1.674935506    
    60
Energy=    -229.541568066040    
LS        0.9802204217       -0.8329099130         1.219949315    
LS        -1.455826719         1.621523334       -0.2066543550    
LS        0.9835050374E-01    -1.323317486         1.045216031    
LS        0.2086372301        -1.791533399        0.8297755031E-01
LS       -0.4766303002       -0.9369837132        0.2737982153    
LS        0.5535617352       -0.8007234941        0.2083663067    
LS       -0.8646993394        -1.348484422         1.424544169    
LS       -0.2780086451        0.5661417062         1.221667003    
LS         1.768414205       -0.3125069689        -1.002761630    
LS        0.1454731067       -0.4679369653         1.742934902    
LS         1.723768547        -1.385511305        -1.206691463    
LS       -0.7068036983         1.658221827        0.5749957740    
LS        0.7253814462       -0.4493494202       -0.8816088936    
LS       -0.5633430473         1.023621582       -0.2550051171    
LS        0.6300590806        -1.344556265        -1.436834706    
LS       -0.7971649069       -0.3345029633         1.110470391    
LS       -0.6892119285        0.8110864513        -1.241502035    
LS        -1.158675264        0.6977873016        0.5701194035    
LS         1.294043274       -0.4210274800E-01   -0.6445839271E-01
LS        0.5720858019         1.179802047        0.9253217745    
LS         1.143566983        0.6614436187E-01     1.770107535    
LS         1.678660673        -1.694548925         1.410286625    
LS        -1.365444888        0.2626460934        -1.782423484    
LS         1.548140201        0.8931711174         1.253379035    
LS       -0.2828117334        0.1229501436        0.2830830340    
LS        -1.686623811         1.183513709        -1.290040314    
LS         1.445142816        -1.048520433       -0.2927954828    
LS        -1.474821323        0.5772310014       -0.4893948363    
LS        -1.472774895        -1.170778460        0.5748894552    
LS       -0.8348675727        -1.750533255        -1.174963969    
LS       -0.1250075492        -1.066406440       -0.7264356502    
LS        -1.144077417        -1.020836548       -0.5163540250    
LS        -1.255302144       -0.2382238327        0.1015842840    
LS         1.132225123         1.559322367       -0.5698831762    
LS        0.6643900560        0.1373348755        0.7878800737    
LS        0.9335198784         1.295026161        -1.623626987    
LS       -0.8101463333       -0.6354196395        -1.404197409    
LS         1.434748825        0.9441821514        0.2395077587    
LS       -0.2057761986        0.8742881478E-02   -0.7483051004    
LS        -1.655088713       -0.7157968975         1.599061657    
LS         1.167916001        -1.648143341        0.5078784477    
LS        0.1365668008         1.464111267       -0.8958298976    
LS       -0.8853934181E-01     1.495925462         1.689868151    
LS         1.129870871        0.5575741733       -0.8884382046    
LS        0.4626742323        0.7938315593       -0.1135637537    
LS         1.716893944       -0.3537014967E-01    0.8825265009    
LS        0.2739815110        0.5283028635        -1.492557102    
LS        -1.076119551         1.231180858         1.457212123    
LS        0.6617103212        -1.308079611       -0.5350567351    
LS        0.4360850417       -0.5103092038E-01   -0.1623099097    
LS        0.8122241237        -1.687860262         1.352029612    
LS        -1.034516535       -0.1267100039       -0.7372358609    
LS        0.4145899417E-01   -0.4688956977        0.8603793537    
LS       -0.2093054752        -1.259364061        -1.602550807    
LS       -0.5926299863        -1.680536552       -0.2899616673    
LS       -0.1475288367        0.9956881632        0.4875480950    
LS         1.216115593       -0.7441471528        -1.525770900    
LS        -1.589409330         1.493118390        0.6899195528    
LS         1.382411723       -0.7201501789        0.4849544150    
LS       -0.4901056731        0.9951388817E-01    -1.675244722    
    60
Energy=    -229.540102895648    
LS        0.9802173506       -0.8332682672         1.220051504    
LS        -1.456330764         1.622487047       -0.2062192925    
LS        0.9791321856E-01    -1.323371093         1.045310343    
LS        0.2082984143        -1.791364796        0.8298301763E-01
LS       -0.4764934722       -0.9365474068        0.2735345769    
LS        0.5532384728       -0.8004610588        0.2079916061    
LS       -0.8651404681        -1.348991786         1.425249889    
LS       -0.2771557304        0.5658345292         1.221742064    
LS         1.768019338       -0.3125451404        -1.002816605    
LS        0.1456710050       -0.4685284075         1.743404777    
LS         1.723645593        -1.385697080        -1.206343339    
LS       -0.7074278219         1.659117158        0.5752356143    
LS        0.7253316271       -0.4499471280       -0.8812386783    
LS       -0.5636436645         1.024240213       -0.2544892494    
LS        0.6303794675        -1.345485230        -1.436641581    
LS       -0.7967296595       -0.3350265678         1.110545746    
LS       -0.6897432163        0.8100137150        -1.240626658    
LS        -1.158456812        0.6981090488        0.5701604784    
LS         1.294969604       -0.4171109988E-01   -0.6460881133E-01
LS        0.5724849666         1.179592674        0.9250386940    
LS         1.143365963        0.6605777477E-01     1.769912653    
LS         1.678480911        -1.695093384         1.410329798    
LS        -1.365259003        0.2620938411        -1.782523768    
LS         1.548647195        0.8925799974         1.253102321    
LS       -0.2818322015        0.1233954203        0.2834905082    
LS        -1.687214890         1.183233062        -1.290850466    
LS         1.445293561        -1.048513917       -0.2929766866    
LS        -1.475723686        0.5787708267       -0.4893297346    
LS        -1.473051981        -1.168970475        0.5755748151    
LS       -0.8351033194        -1.751244900        -1.174388051    
LS       -0.1249346663        -1.067554059       -0.7267194923    
LS        -1.144080516        -1.020373442       -0.5167652160    
LS        -1.253852396       -0.2367532042        0.9991625670E-01
LS         1.132233214         1.559186481       -0.5704050479    
LS        0.6654954897        0.1369770602        0.7875351182    
LS        0.9329079046         1.293887526        -1.624457969    
LS       -0.8098095990       -0.6356415602        -1.404221540    
LS         1.434751461        0.9446752098        0.2395702709    
LS       -0.2056363232        0.7347391240E-02   -0.7473290176    
LS        -1.655295162       -0.7160166312         1.599500715    
LS         1.167869185        -1.647822790        0.5078175449    
LS        0.1365927147         1.463091236       -0.8958798269    
LS       -0.8851567484E-01     1.495563709         1.689859775    
LS         1.129322444        0.5572822247       -0.8882966007    
LS        0.4626557457        0.7942998885       -0.1129951045    
LS         1.718264703       -0.3622642659E-01    0.8821881783    
LS        0.2732850120        0.5274127923        -1.491607809    
LS        -1.075694347         1.230626658         1.457477976    
LS        0.6619146180        -1.308374731       -0.5347301272    
LS        0.4371337315       -0.5037982945E-01   -0.1624088597    
LS        0.8119385990        -1.688151028         1.351909979    
LS        -1.035269326       -0.1228259010       -0.7409019140    
LS        0.4209119326E-01   -0.4688159087        0.8606751367    
LS       -0.2092166149        -1.259952169        -1.602532880    
LS       -0.5932555802        -1.680027204       -0.2893220528    
LS       -0.1479659151        0.9968002364        0.4878843854    
LS         1.215612718       -0.7443600697        -1.525657225    
LS        -1.589446022         1.493694955        0.6899132974    
LS         1.381374858       -0.7196189996        0.4850152654    
LS       -0.4900835365        0.9921532907E-01    -1.675638746    
    60
Energy=    -229.538864703677    
LS        0.9801031526       -0.8337250748         1.220175632    
LS        -1.456872810         1.623692153       -0.2057390333    
LS        0.9747455156E-01    -1.323412088         1.045369394    
LS        0.2079746856        -1.791318047        0.8295662194E-01
LS       -0.4763434910       -0.9361393395        0.2731675717    
LS        0.5530134883       -0.8002707260        0.2075899378    
LS       -0.8656079487        -1.349447708         1.425961212    
LS       -0.2763888210        0.5655000553         1.221528826    
LS         1.767605258       -0.3125186638        -1.003009626    
LS        0.1459477130       -0.4691354954         1.743821230    
LS         1.723521138        -1.385885442        -1.206350659    
LS       -0.7080270672         1.660009076        0.5754724760    
LS        0.7253440248       -0.4506445407       -0.8808152793    
LS       -0.5641084922         1.024907973       -0.2540699270    
LS        0.6305336591        -1.346319671        -1.436401250    
LS       -0.7963993601       -0.3355518245         1.110510129    
LS       -0.6903433252        0.8091483598        -1.239669306    
LS        -1.158317280        0.6985151452        0.5702424607    
LS         1.295983764       -0.4140189599E-01   -0.6470270471E-01
LS        0.5728492902         1.179340920        0.9247966241    
LS         1.143063703        0.6594144248E-01     1.769739815    
LS         1.678420098        -1.695570401         1.410487258    
LS        -1.364987934        0.2615671903        -1.782612866    
LS         1.549174191        0.8917778946         1.252920859    
LS       -0.2808086972        0.1237710231        0.2839163170    
LS        -1.687869144         1.182984460        -1.291681433    
LS         1.445453898        -1.048164810       -0.2926546855    
LS        -1.476476468        0.5800904170       -0.4894520644    
LS        -1.473341731        -1.167072697        0.5762486735    
LS       -0.8353978019        -1.751887561        -1.173842577    
LS       -0.1246619196        -1.068725715       -0.7270468596    
LS        -1.144037092        -1.019668142       -0.5170496611    
LS        -1.252336141       -0.2353665602        0.9851355218E-01
LS         1.132298847         1.558845406       -0.5709135696    
LS        0.6666169630        0.1365897751        0.7871808329    
LS        0.9322871022         1.292720419        -1.625240966    
LS       -0.8094434623       -0.6356755709        -1.404408984    
LS         1.434819980        0.9452549668        0.2396799574    
LS       -0.2058867319        0.5990990922E-02   -0.7463917245    
LS        -1.655514373       -0.7164322068         1.600076858    
LS         1.167858577        -1.647411747        0.5077232595    
LS        0.1366105655         1.462035256       -0.8958444809    
LS       -0.8853583060E-01     1.495174321         1.689893606    
LS         1.128579294        0.5570222268       -0.8883376186    
LS        0.4626332729        0.7947256787       -0.1124315067    
LS         1.719426586       -0.3686470884E-01    0.8820615679    
LS        0.2726712345        0.5265912796        -1.490777708    
LS        -1.075144937         1.230014920         1.457751043    
LS        0.6620597685        -1.308694142       -0.5344049408    
LS        0.4381330586       -0.4988454893E-01   -0.1625031903    
LS        0.8117602833        -1.688347822         1.351786684    
LS        -1.035733256       -0.1194525209       -0.7441967145    
LS        0.4266274606E-01   -0.4687653473        0.8609863181    
LS       -0.2091594761        -1.260562098        -1.602546518    
LS       -0.5939169254        -1.679445849       -0.2887774439    
LS       -0.1483043747        0.9977470659        0.4883157292    
LS         1.215116915       -0.7444826314        -1.525462783    
LS        -1.589391996         1.494278917        0.6898297201    
LS         1.380352025       -0.7191426698        0.4846857343    
LS       -0.4899550361        0.9907524956E-01    -1.676053861    
    60
Energy=    -229.537315196433    
LS        0.9800393717       -0.8341600094         1.220244067    
LS        -1.457339430         1.625296826       -0.2052858290    
LS        0.9706197803E-01    -1.323549107         1.045446692    
LS        0.2076541920        -1.791322408        0.8297664188E-01
LS       -0.4763374829       -0.9358009659        0.2726936397    
LS        0.5527888332       -0.8002797016        0.2072410395    
LS       -0.8660023531        -1.349872813         1.426477039    
LS       -0.2758043619        0.5650838899         1.221421687    
LS         1.767548765       -0.3121267764        -1.003128671    
LS        0.1462729332       -0.4696296354         1.744148573    
LS         1.723367062        -1.385955095        -1.206287853    
LS       -0.7084905615         1.660711346        0.5756084857    
LS        0.7252112966       -0.4513092074       -0.8801924690    
LS       -0.5646367220         1.025457994       -0.2535299151    
LS        0.6306803349        -1.347087707        -1.436207358    
LS       -0.7963635298       -0.3359707519         1.110282207    
LS       -0.6908655083        0.8084111401        -1.238785910    
LS        -1.158232142        0.6990037871        0.5703351764    
LS         1.296876682       -0.4096290753E-01   -0.6484180175E-01
LS        0.5731729568         1.179139524        0.9247256446    
LS         1.142784013        0.6570212181E-01     1.769465331    
LS         1.678525084        -1.696122509         1.410534175    