   220
Energy=    -454.473009584872    
N         -4.768827096        -4.382503571         7.184842455    
H1        -4.978912721        -4.791883599         6.282251211    
H2        -5.198219795        -3.470266321         7.228330221    
H3        -5.172158520        -4.964872092         7.904677843    
CA        -3.300021733        -4.280257464         7.387049208    
HA        -3.119374961        -3.758066627         8.327896763    
CB        -2.659190783        -5.670955532         7.494963575    
HB        -2.775095169        -6.210078115         6.552274871    
HB        -1.594436996        -5.568005413         7.713100694    
OG        -3.282771717        -6.402925023         8.539457733    
HG        -2.824219376        -7.255522788         8.623732126    
C         -2.623663977        -3.486026759         6.269146496    
O         -3.131650462        -3.432097917         5.149008553    
N         -1.461265787        -2.882850863         6.540600752    
H         -1.085879291        -2.940009735         7.478825839    
CA       -0.6128408077        -2.254800774         5.513951223    
HA        -1.252050748        -1.732639999         4.799505210    
CB        0.3052166913        -1.204592293         6.154979266    
HB        0.8129676122        -1.640796840         7.016992901    
HB         1.074369544       -0.9284196334         5.433505972    
CG       -0.3857889904        0.5960900445E-01     6.564097034    
CD       -0.7402584958        0.4037940514         7.823400006    
HD       -0.5593098914       -0.1992259574         8.708977961    
NE        -1.377963608         1.630959390         7.806612514    
HE        -1.736258291         2.083880719         8.641820172    
CE        -1.464281177         2.141705565         6.528085569    
CZ        -2.012008014         3.319921995         5.998442325    
HZ        -2.494450728         4.037093254         6.648986947    
CH        -1.919675600         3.556494757         4.615536412    
HH        -2.333732034         4.463364794         4.190449592    
CZ        -1.279922101         2.618174087         3.784603764    
HZ        -1.200693243         2.812279975         2.721921834    
CE       -0.7391691556         1.434882984         4.326608066    
HE       -0.2455562744        0.7222496052         3.681810802    
CD       -0.8221540250         1.163281487         5.710491430    
C         0.1971247359        -3.296030743         4.723435858    
O         0.6423902117        -4.306452496         5.274382419    
N         0.3999271754        -3.032303983         3.429591388    
H        -0.2261640384E-01    -2.193405811         3.046996203    
CA         1.136411091        -3.890000497         2.480851875    
HA         1.744449093        -4.602032511         3.040871654    
CB        0.1814172843        -4.701485718         1.580489226    
HB        0.7823615495        -5.353588666        0.9455332819    
CG       -0.7877173943        -5.579130072         2.374004306    
HG        -1.492871847        -4.964470227         2.934681687    
HG        -1.341171795        -6.220591479         1.688390685    
HG       -0.2284137912        -6.209737279         3.065574111    
OG       -0.5990913352        -3.869278079        0.7474000050    
HG       -0.9521397729        -3.147441728         1.295912734    
C          2.086104825        -3.061126820         1.609919992    
O          1.769131679        -1.922779762         1.259906381    
N          3.243446721        -3.623080961         1.251305889    
H          3.439161386        -4.561746416         1.569945289    
CA         4.238032256        -2.999595839        0.3661150760    
HA         4.059742866        -1.924450359        0.3165779767    
CB         5.638937386        -3.207496902        0.9552698317    
HB         5.696687419        -2.668866002         1.900192720    
HB         5.769414933        -4.268249187         1.176512571    
CG         6.789241262        -2.763446925        0.1004983533    
CD         7.732219285        -3.581177762       -0.4209214033    
HD         7.766167213        -4.658937477       -0.2836090453    
NE         8.657667850        -2.837479344        -1.126597912    
HE         9.474890825        -3.244728129        -1.571650798    
CE         8.349729310        -1.494213392        -1.107245081    
CZ         8.964830432       -0.3641087241        -1.666004055    
HZ         9.871206190       -0.4671165506        -2.247565915    
CH         8.392470963        0.9011072035        -1.451744458    
HH         8.857349004         1.786803008        -1.868521277    
CZ         7.216764715         1.016132340       -0.6881502381    
HZ         6.784442087         1.994075343       -0.5174875460    
CE         6.604072689       -0.1275071470       -0.1383781421    
HE         5.704635428       -0.2451405586E-01    0.4515256315    
CD         7.154285303        -1.413250409       -0.3292089224    
C          4.132940128        -3.557673781        -1.059962753    
O          4.030419938        -4.772227864        -1.253427713    
N          4.170087577        -2.674096360        -2.061700178    
H          4.190636775        -1.687384707        -1.818306827    
CA         3.937346667        -3.011342063        -3.479163617    
HA         3.737460708        -4.081036546        -3.558772907    
CB         2.672172586        -2.290082884        -3.984912729    
HB         2.838516869        -1.211785053        -3.979258116    
HB         2.474656581        -2.604802942        -5.010389132    
CG         1.433439504        -2.619913025        -3.137937692    
HG         1.526695855        -2.160211451        -2.151024344    
HG         1.374392307        -3.702662248        -3.000621952    
CD        0.1489444936        -2.116179645        -3.809281628    
OE       -0.7549011198E-01   -0.8816140878        -3.840121326    
OE       -0.6629051567        -2.955763194        -4.269915146    
C          5.169351974        -2.769986011        -4.380510583    
O          5.043294272        -2.616554731        -5.598169139    
N          6.371806964        -2.702695552        -3.792248115    
H          6.416754875        -2.859041149        -2.792765835    
CA         7.640055639        -2.467185880        -4.506819149    
HA         8.467644235        -2.764515327        -3.864558497    
HA         7.667993343        -3.096285876        -5.397164390    
C          7.882733069        -1.012907875        -4.946495999    
O          8.884449179       -0.7285525526        -5.608274679    
N          6.973698643       -0.9668562725E-01    -4.594014787    
H          6.216886854       -0.4259831535        -4.017202203    
CA         7.025247571         1.333570971        -4.929751986    
HA         8.066401146         1.663950096        -4.938631361    
CB         6.428467119         1.506410140        -6.341041709    
HB         6.990797434        0.9004071033        -7.051963119    
HB         5.394158148         1.160177857        -6.349149483    
CG         6.456463363         2.951521972        -6.813567469    
OD         5.461964421         3.663779447        -6.771170040    
ND         7.591908465         3.434865357        -7.268890734    
HD         7.617499437         4.394094628        -7.583379760    
HD         8.412544261         2.848455374        -7.317353533    
C          6.271985551         2.212667713        -3.906773714    
O          6.726673419         3.315802479        -3.589782074    
N          5.136613408         1.720528867        -3.385320190    
H          4.821247708        0.8202706139        -3.715344765    
CA         4.266439021         2.405277487        -2.411744599    
HA         4.865629104         3.136453640        -1.864540155    
CB         3.162049390         3.179027541        -3.162779863    
HB         2.564916438         3.736313243        -2.438677960    
HB         3.643840596         3.906960790        -3.818337782    
CG         2.219948417         2.299828203        -4.009704040    
HG         2.802480084         1.734039913        -4.737790910    
HG         1.686048905         1.603503550        -3.362290573    
CD         1.209504676         3.180193564        -4.762224153    
HD        0.5679455926         3.698712109        -4.047114099    
HD         1.761985645         3.934691654        -5.325388454    
CE        0.3446503522         2.399898949        -5.763979836    
HE        0.9954270213         1.812924424        -6.419132807    
HE       -0.1805400538         3.128172740        -6.389596829    
NZ       -0.6543527580         1.517719991        -5.105206585    
HZ        -1.205847141         2.023574787        -4.425140969    
HZ       -0.2177369821        0.7233963351        -4.633873646    
HZ        -1.291601679         1.127172954        -5.786514040    
C          3.684477407         1.450847155        -1.360704201    
O          3.627670308        0.2365045252        -1.574855521    
N          3.230824161         2.017922142       -0.2418117469    
H          3.318769650         3.019739290       -0.1582746018    
CA         2.452313350         1.323989514        0.7914006313    
HA         2.668932522        0.2585808418        0.7363006018    
CB         2.867698872         1.801119001         2.189204016    
HB         2.842278227         2.891661418         2.221559466    
HB         2.129010807         1.441894667         2.906887900    
CG         4.208536813         1.322675124         2.657320496    
CD         5.383206844         1.975987487         2.505054823    
HD         5.501329802         2.938773514         2.015897823    
NE         6.405793161         1.229695066         3.061655544    
HE         7.377150665         1.524396776         3.054829294    
CE         5.936839525        0.5470060620E-01     3.611174640    
CZ         6.559904674        -1.008312092         4.283158706    
HZ         7.629064573       -0.9973509782         4.446871634    
CH         5.776231399        -2.082250730         4.741588658    
HH         6.241068799        -2.910630774         5.263257540    
CZ         4.386127487        -2.080034740         4.521270879    
HZ         3.785644190        -2.908828494         4.876812650    
CE         3.772719326        -1.007774702         3.843193696    
HE         2.705201909        -1.013109743         3.679078171    
CD         4.529958793        0.8648705431E-01     3.369544664    
C         0.9422886403         1.508605435        0.5717557082    
O         0.4814467487         2.615196512        0.2740765811    
N         0.1749275721        0.4304909025        0.7564953882    
H         0.6441400786       -0.4405959709        0.9881100564    
CA        -1.278068417        0.3658719820        0.5069606744    
HA        -1.697747346         1.372172901        0.5201100702    
CB        -1.541899793       -0.2426051321       -0.8852649237    
HB        -1.073434444        -1.226820489       -0.9385262573    
CG        -3.024638429       -0.3813032560        -1.236423463    
HG        -3.527677906        0.5803501267        -1.127146988    
HG        -3.127770463       -0.7255073326        -2.266267154    
HG        -3.499926641        -1.113461725       -0.5847284743    
OG       -0.9779609589        0.5808338032        -1.882501713    
HG       -0.6564696274       -0.2034107022E-01    -2.593001425    
C         -1.978781796       -0.4592626452         1.589369045    
O         -1.520384286        -1.550248680         1.935051866    
N         -3.101006806        0.3417254878E-01     2.118222104    
H         -3.430465765        0.9348184398         1.799200634    
CA        -3.936326875       -0.6870026273         3.087733832    
HA        -3.290259871        -1.236587708         3.772522613    
CB        -4.735497763        0.3229884619         3.920416856    
HB        -4.033257898        0.9777855680         4.438811195    
HB        -5.328056696        0.9460074255         3.248164625    
CG        -5.655372324       -0.2767422456         4.941365682    
CD        -6.960752007       -0.5733911945         4.744232047    
HD        -7.502900026       -0.4101290841         3.816189120    
NE        -7.498028297        -1.106909194         5.900398250    
HE        -8.470231959        -1.390135003         5.983712758    
CE        -6.561655281        -1.175157491         6.909289444    
CZ        -6.614064404        -1.623315948         8.238146856    
HZ        -7.541879962        -1.999614414         8.650092957    
CH        -5.454174207        -1.558052233         9.030300834    
HH        -5.481415017        -1.883587026         10.06432600    
CZ        -4.259246659        -1.059515841         8.479509726    
HZ        -3.368453495        -1.000144690         9.094344405    
CE        -4.217897215       -0.6188879724         7.141549466    
HE        -3.297651315       -0.2283534250         6.730702908    
CD        -5.366813485       -0.6580416894         6.322473542    
C         -4.858497782        -1.697765324         2.384453696    
O         -5.553677075        -1.344036777         1.425511426    
N         -4.870653630        -2.950714885         2.861556353    
H         -4.278117552        -3.151749619         3.662442717    
CA        -5.648972939        -4.075572485         2.301376566    
HA        -6.468935276        -3.676450997         1.700132595    
CB        -4.757055791        -4.935921510         1.379369818    
HB        -5.358001245        -5.750907514        0.9717459626    
HB        -3.943145259        -5.370412096         1.962596626    
CG        -4.165298742        -4.134221748        0.2080511914    
HG        -3.448272831        -3.410940614        0.5975087808    
HG        -4.967326833        -3.596399613       -0.2998028452    
CD        -3.453123879        -5.030763696       -0.8122177002    
HD        -4.181745026        -5.690229482        -1.287627466    
HD        -2.696588048        -5.633303903       -0.3072271897    
CE        -2.782726408        -4.142449740        -1.867282213    
HE        -3.539917059        -3.492128011        -2.316330029    
HE        -2.046488282        -3.506802755        -1.365672559    
NZ        -2.112667411        -4.937106618        -2.927790864    
HZ        -1.424668454        -5.567701934        -2.539658547    
HZ        -2.777389713        -5.480545304        -3.461711649    
HZ        -1.627341833        -4.311163643        -3.574894645    
C         -6.295564027        -4.934575797         3.397892327    
O         -5.846445603        -4.959050960         4.545031283    
N         -7.347530397        -5.662672408         3.060024360    
HN        -7.694478572        -5.635451781         2.114589147    
HN        -7.787135458        -6.239872117         3.758820960    
   220
Energy=    -454.470379047676    
N         -4.760517510        -4.379464027         7.191236725    
H1        -4.967055635        -4.795745120         6.290984300    
H2        -5.195323115        -3.469517875         7.228330569    
H3        -5.161330933        -4.959519955         7.914340224    
CA        -3.292598809        -4.267179081         7.394695830    
HA        -3.116340722        -3.736843911         8.331823985    
CB        -2.643918882        -5.653303718         7.514183579    
HB        -2.755120469        -6.200218143         6.575428631    
HB        -1.580149925        -5.542545115         7.733314388    
OG        -3.264988358        -6.380910329         8.563216054    
HG        -2.801208417        -7.229883098         8.655175787    
C         -2.619246999        -3.477328171         6.271825845    
O         -3.128354280        -3.430558612         5.151852578    
N         -1.458173563        -2.869680347         6.538969948    
H         -1.081761601        -2.920706133         7.477125821    
CA       -0.6125172803        -2.244877329         5.508092650    
HA        -1.253766169        -1.725958014         4.793140670    
CB        0.3060461728        -1.191469085         6.143101388    
HB        0.8197092361        -1.625459392         7.002721411    
HB         1.070364271       -0.9139058536         5.417098198    
CG       -0.3859914874        0.7131482961E-01     6.554886123    
CD       -0.7346556479        0.4155652848         7.815795845    
HD       -0.5474310505       -0.1862777838         8.700870342    
NE        -1.375524633         1.641108873         7.801497293    
HE        -1.730459442         2.093795326         8.638261288    
CE        -1.469893958         2.150682681         6.523071431    
CZ        -2.023427772         3.327097652         5.995466126    
HZ        -2.504295380         4.043501828         6.648022497    
CH        -1.938947804         3.562912277         4.611929508    
HH        -2.357590406         4.468383315         4.188357494    
CZ        -1.301015653         2.625676165         3.778348760    
HZ        -1.227758321         2.819213206         2.715123620    
CE       -0.7542852111         1.444258306         4.318399425    
HE       -0.2619983369        0.7325371359         3.671625288    
CD       -0.8294987884         1.173335892         5.702846472    
C         0.1966512501        -3.288640442         4.719993177    
O         0.6436073609        -4.296638580         5.273961158    
N         0.3967809975        -3.029849616         3.424713510    
H        -0.2718643733E-01    -2.192829871         3.039622479    
CA         1.131563635        -3.891078919         2.477808895    
HA         1.739867412        -4.601656436         3.039382762    
CB        0.1749781513        -4.704957326         1.581374425    
HB        0.7746803339        -5.360307839        0.9485941497    
CG       -0.7947018040        -5.578132168         2.379131057    
HG        -1.499405655        -4.960279002         2.936874474    
HG        -1.348570224        -6.222506836         1.696592367    
HG       -0.2358453405        -6.205774074         3.073743901    
OG       -0.6050701781        -3.875033771        0.7456132694    
HG       -0.9586250648        -3.151869683         1.292053583    
C          2.080689702        -3.065589381         1.603050395    
O          1.763584090        -1.928507740         1.249053578    
N          3.238087236        -3.628656821         1.246315996    
H          3.433970236        -4.566268508         1.567960538    
CA         4.233641941        -3.006652199        0.3611523930    
HA         4.058883375        -1.930787122        0.3145557994    
CB         5.634399513        -3.220693302        0.9484109336    
HB         5.694537662        -2.685334774         1.895028673    
HB         5.761779957        -4.282573790         1.166118591    
CG         6.785448078        -2.777407486        0.9427778284E-01
CD         7.726286358        -3.596354361       -0.4290511803    
HD         7.757630756        -4.674467462       -0.2939344568    
NE         8.653320768        -2.853494394        -1.133511282    
HE         9.469276988        -3.261881565        -1.579843279    
CE         8.348832233        -1.509500673        -1.111039373    
CZ         8.966768576       -0.3797856759        -1.667471371    
HZ         9.872810211       -0.4839154939        -2.249358175    
CH         8.397521656        0.8863985643        -1.450758252    
HH         8.864591369         1.771742382        -1.865843118    
CZ         7.221993981         1.002806758       -0.6870945779    
HZ         6.791864216         1.981449007       -0.5147871057    
CE         6.606578612       -0.1403890008       -0.1394007218    
HE         5.707355605       -0.3621853987E-01    0.4506340405    
CD         7.153646683        -1.427149572       -0.3327314321    
C          4.125404367        -3.560517406        -1.066394097    
O          4.014799088        -4.773878852        -1.262925015    
N          4.169299459        -2.674707448        -2.065967639    
H          4.195610223        -1.688811765        -1.820015481    
CA         3.936270879        -3.006868629        -3.484616942    
HA         3.738465277        -4.076654965        -3.568280892    
CB         2.669514927        -2.285924903        -3.986889359    
HB         2.834111014        -1.207383210        -3.977507687    
HB         2.471822535        -2.597329146        -5.013357937    
CG         1.431807318        -2.620651290        -3.140346642    
HG         1.524796203        -2.164019775        -2.151990553    
HG         1.374694852        -3.703961416        -3.006617018    
CD        0.1461144154        -2.116650980        -3.809209388    
OE       -0.7696788022E-01   -0.8818346803        -3.841567629    
OE       -0.6677666851        -2.956073072        -4.266520582    
C          5.167223130        -2.759629027        -4.385868354    
O          5.039968980        -2.599906888        -5.602596851    
N          6.370205935        -2.694797337        -3.798469796    
H          6.415901651        -2.855849457        -2.799763177    
CA         7.638361839        -2.458758986        -4.513171808    
HA         8.465766073        -2.761350835        -3.873114326    
HA         7.663914617        -3.083705442        -5.406507848    
C          7.884906718        -1.003150912        -4.946285282    
O          8.890623209       -0.7174931123        -5.601415768    
N          6.975534421       -0.8700989354E-01    -4.594554793    
H          6.214079370       -0.4182322510        -4.025030894    
CA         7.033132938         1.345347821        -4.920644865    
HA         8.075364164         1.672454929        -4.922271407    
CB         6.444001265         1.529365623        -6.333718920    
HB         7.008436678        0.9266227648        -7.045758228    
HB         5.408816010         1.185972392        -6.349375318    
CG         6.478196018         2.977579189        -6.796461069    
OD         5.485064494         3.691836499        -6.755505676    
ND         7.617490218         3.461290969        -7.241768984    
HD         7.646987382         4.422373832        -7.550173622    
HD         8.437235405         2.873495564        -7.288841161    
C          6.277956769         2.220407692        -3.895551745    
O          6.732733400         3.321695337        -3.572320876    
N          5.140909292         1.726895401        -3.379203010    
H          4.826032441        0.8281066140        -3.713585694    
CA         4.267813606         2.408610933        -2.406165066    
HA         4.864621293         3.139828759        -1.856393031    
CB         3.163870000         3.181843376        -3.158388908    
HB         2.564881456         3.737908431        -2.434903299    
HB         3.645968728         3.910703292        -3.812707119    
CG         2.224223582         2.301969725        -4.007263038    
HG         2.808809003         1.736440018        -4.733887084    
HG         1.689314063         1.605459903        -3.360874979    
CD         1.214931011         3.181250502        -4.762495615    
HD        0.5707401130         3.699153432        -4.049294365    
HD         1.768186133         3.936305238        -5.324128542    
CE        0.3540796940         2.399526091        -5.766583873    
HE         1.007503201         1.812260293        -6.418861090    
HE       -0.1690784463         3.126989535        -6.394807240    
NZ       -0.6469489464         1.517584411        -5.110570950    
HZ        -1.200823115         2.023903197        -4.432760537    
HZ       -0.2119362639        0.7235797620        -4.637211962    
HZ        -1.281890432         1.126391011        -5.793674468    
C          3.685071665         1.451355628        -1.358161581    
O          3.631804312        0.2371459948        -1.574052951    
N          3.226358194         2.016054692       -0.2401969675    
H          3.311638168         3.017978948       -0.1552242551    
CA         2.446893697         1.319078840        0.7901603633    
HA         2.663012217        0.2537479734        0.7315579428    
CB         2.861879565         1.791425970         2.189663178    
HB         2.835585347         2.881828061         2.225984428    
HB         2.123401154         1.429079625         2.906010855    
CG         4.203127727         1.312356343         2.655999105    
CD         5.377596810         1.966217578         2.504564805    
HD         5.495198940         2.930084149         2.017403340    
NE         6.400540543         1.219127687         3.059541585    
HE         7.371841908         1.514045309         3.052995557    
CE         5.931995253        0.4303734711E-01     3.607090596    
CZ         6.555324679        -1.021072822         4.277075975    
HZ         7.624493528        -1.010143128         4.440702306    
CH         5.771933051        -2.096054359         4.733589259    
HH         6.236955582        -2.925311374         5.253659569    
CZ         4.381835356        -2.093813961         4.513186211    
HZ         3.781537431        -2.923464563         4.867008942    
CE         3.768243526        -1.020498404         3.837066914    
HE         2.700827170        -1.025869888         3.672629532    
CD         4.525110381        0.7488397219E-01     3.365611963    
C         0.9370574353         1.505039069        0.5704585641    
O         0.4767622542         2.612498726        0.2751904194    
N         0.1692264982        0.4268798279        0.7526830635    
H         0.6382246029       -0.4449241952        0.9820015686    
CA        -1.283813973        0.3631678297        0.5029852486    
HA        -1.703272664         1.369595894        0.5169561063    
CB        -1.547529442       -0.2441635406       -0.8897273167    
HB        -1.078456798        -1.228058422       -0.9440755797    
CG        -3.030209851       -0.3834688771        -1.240930525    
HG        -3.533800501        0.5777687888        -1.130529728    
HG        -3.133126210       -0.7265525761        -2.271162481    
HG        -3.505057285        -1.116811455       -0.5901956922    
OG       -0.9840302774        0.5806517444        -1.886075142    
HG       -0.6611661751       -0.1984335461E-01    -2.596508400    
C         -1.984664240       -0.4627582766         1.584638084    
O         -1.526434478        -1.554165669         1.929188190    
N         -3.106424099        0.3045519347E-01     2.114614801    
H         -3.436051261        0.9314079061         1.796605547    
CA        -3.940103551       -0.6908978656         3.085407534    
HA        -3.292672228        -1.238111249         3.770782636    
CB        -4.740997424        0.3186523328         3.916921959    
HB        -4.039934902        0.9768266956         4.432604818    
HB        -5.336558960        0.9382146051         3.244138618    
CG        -5.657112701       -0.2815718079         4.940932372    
CD        -6.961505229       -0.5843138594         4.746555452    
HD        -7.505652276       -0.4262340171         3.818793297    
NE        -7.494921252        -1.116481934         5.905140056    
HE        -8.465816622        -1.403521369         5.990671991    
CE        -6.556867267        -1.177613279         6.912920836    
CZ        -6.605460974        -1.621926854         8.243235355    
HZ        -7.531071070        -2.000817993         8.657752746    
CH        -5.444668987        -1.549417020         9.033444723    
HH        -5.468954635        -1.871973105         10.06846898    
CZ        -4.252700483        -1.047401181         8.479429434    
HZ        -3.361262495       -0.9823847692         9.092743057    
CE        -4.215157025       -0.6106789005         7.140102686    
HE        -3.297152449       -0.2175389163         6.726746339    
CD        -5.365052139       -0.6572791982         6.322827348    
C         -4.860517093        -1.704674870         2.384212862    
O         -5.556770548        -1.353897112         1.424936148    
N         -4.870151750        -2.956828154         2.863499297    
H         -4.276825084        -3.155518492         3.664416476    
CA        -5.647687456        -4.083790551         2.306428455    
HA        -6.469986006        -3.686910152         1.706867987    
CB        -4.756507465        -4.943565221         1.383115288    
HB        -5.356943694        -5.760077200        0.9777947922    
HB        -3.940511304        -5.375956393         1.964945914    
CG        -4.168893437        -4.142217762        0.2094569990    
HG        -3.453592412        -3.416025042        0.5966310532    
HG        -4.973282498        -3.607732049       -0.2981860561    
CD        -3.455114233        -5.038062510       -0.8103389863    
HD        -4.182235129        -5.699943936        -1.284678119    
HD        -2.696694427        -5.638095276       -0.3051875802    
CE        -2.787728312        -4.148679043        -1.866476266    
HE        -3.547417229        -3.502561763        -2.317371399    
HE        -2.054863982        -3.508833720        -1.365249864    
NZ        -2.112786543        -4.941938380        -2.924926345    
HZ        -1.422567959        -5.568933249        -2.534894742    
HZ        -2.774342960        -5.489007126        -3.459094520    
HZ        -1.629218276        -4.314710483        -3.572099390    
C         -6.289690874        -4.942816114         3.405649308    
O         -5.837851445        -4.964707990         4.551801663    
N         -7.340779282        -5.673767550         3.071213253    
HN        -7.690152699        -5.648447435         2.126600007    
HN        -7.777176733        -6.251281482         3.771753661    
   220
Energy=    -454.443826170847    
N         -4.763366532        -4.327809309         7.204363343    
H1        -4.975902910        -4.751664700         6.309061144    
H2        -5.187813385        -3.412588373         7.232147215    
H3        -5.169490353        -4.895293193         7.934403709    
CA        -3.293850904        -4.229688870         7.404001794    