   134
 Energy=    -365.953451181108
N          -698.1680910000     -499.6280765000       18.4100277300
H1         -698.6513965000     -498.7794112000       18.6797358100
H2         -698.3233447000     -500.3373346000       19.1113941900
H3         -698.5838155000     -499.9473672000       17.5477234600
CA         -696.7111884000     -499.3861884000       18.2146046700
HA         -696.3152279000     -500.2890869000       17.7444947600
CB         -696.4082162000     -498.2348295000       17.2223143000
HB         -696.8905625000     -497.3134717000       17.5506349300
HB         -695.3320535000     -498.0527208000       17.2131416200
SG         -696.9523883000     -498.5727605000       15.5169918700
C          -695.9398836000     -499.2961764000       19.5495533300
O          -695.1895956000     -500.2208467000       19.8546673100
N          -696.0532966000     -498.2698770000       20.4069944900
H          -695.5104005000     -498.3839796000       21.2537868200
CA         -696.8693238000     -497.0425671000       20.3327146800
HA         -697.6324252000     -497.1595908000       19.5723099600
CB         -697.6277768000     -496.8602325000       21.6601690200
HB         -698.3905426000     -496.0943028000       21.5109884200
HB         -698.1571956000     -497.7855806000       21.8929531900
CG         -696.7809612000     -496.4683506000       22.8612714700
CD         -696.7227648000     -495.1198801000       23.2665959100
HD         -697.2839213000     -494.3676628000       22.7250384800
CE         -695.9376692000     -494.7421209000       24.3735863700
HE         -695.8917743000     -493.7046284000       24.6757559700
CZ         -695.2083614000     -495.7194887000       25.0860452400
OH         -694.4439072000     -495.3656494000       26.1546218500
HH         -694.4850033000     -494.4158836000       26.3247045500
CE         -695.2815851000     -497.0732471000       24.6923374700
HE         -694.7323728000     -497.8197786000       25.2497574000
CD         -696.0721249000     -497.4472131000       23.5876629000
HD         -696.1409671000     -498.4915196000       23.3081010100
C          -696.0692017000     -495.7813100000       19.9419160300
O          -696.6623659000     -494.8084950000       19.4764336600
N          -694.7363655000     -495.8171521000       20.0676501100
H          -694.3266444000     -496.6623136000       20.4395719600
CA         -693.7878774000     -494.7688905000       19.6415542400
HA         -694.2462298000     -494.2016657000       18.8327690800
CB         -693.4533841000     -493.7830192000       20.7927469200
HB         -692.6413934000     -493.1392888000       20.4510559100
CG         -694.6415241000     -492.8483759000       21.0708157000
HG         -695.4615359000     -493.4009943000       21.5217692200
HG         -694.9847519000     -492.4003404000       20.1378855100
HG         -694.3422406000     -492.0439939000       21.7419552000
CG         -692.9587446000     -494.5140110000       22.0635608000
HG         -693.7620587000     -495.1245035000       22.4749297500
HG         -692.1374533000     -495.1783410000       21.7935510300
CD         -692.4491461000     -493.5762755000       23.1647987400
HD         -692.0292943000     -494.1709966000       23.9765131000
HD         -691.6733012000     -492.9212928000       22.7669342500
HD         -693.2671146000     -492.9763651000       23.5630781700
C          -692.4927852000     -495.3744801000       19.0692663300
O          -692.1987228000     -496.5522849000       19.2875467500
N          -691.7021041000     -494.5420496000       18.3790053300
H          -692.0601133000     -493.6023927000       18.2541598800
CA         -690.3952236000     -494.8178326000       17.7454622900
HA         -690.0803917000     -493.8805433000       17.2828987500
CB         -689.3229706000     -495.1443199000       18.8041802200
HB         -689.5798961000     -496.0749645000       19.3114399800
HB         -688.3717574000     -495.2921007000       18.2900539200
CG         -689.1420793000     -494.0277132000       19.8503144200
HG         -690.0714120000     -493.8903376000       20.4032441800
HG         -688.9123735000     -493.0935634000       19.3363128200
CD         -688.0284966000     -494.3081744000       20.8638400200
OE         -687.3599440000     -495.3366924000       20.8633113900
NE         -687.7807238000     -493.3960293000       21.7824046700
HE         -687.0474387000     -493.5737543000       22.4540271000
HE         -688.3131144000     -492.5374241000       21.8055498600
C          -690.3985702000     -495.8487818000       16.5946908700
O          -689.8424741000     -495.5677200000       15.5306433800
N          -691.0360724000     -497.0107714000       16.7637186500
H          -691.4774600000     -497.1659763000       17.6644706100
CA         -691.1876523000     -498.0516661000       15.7403241800
HA         -691.1166821000     -497.6011061000       14.7494244700
CB         -690.0065047000     -499.0357519000       15.8828567900
HB         -689.0680728000     -498.4847260000       15.8163710000
HB         -690.0457456000     -499.5142940000       16.8621426400
CG         -689.9830951000     -500.1179066000       14.8104958200
OD         -690.7201173000     -500.0988522000       13.8318570100
ND         -689.1158795000     -501.0961707000       14.9496103500
HD         -689.0826562000     -501.8177652000       14.2439999800
HD         -688.4982615000     -501.1172218000       15.7486205100
C          -692.5662003000     -498.7538639000       15.8570212700
O          -692.7159093000     -499.7186561000       16.6083857200
N          -693.6170421000     -498.3170315000       15.1528440100
H          -694.4556721000     -498.8707711000       15.2399734700
CA         -693.7110000000     -497.1167105000       14.3091636300
HA         -692.9028476000     -497.1674188000       13.5799522100
CB         -695.0344017000     -497.1722798000       13.5269630600
HB         -695.1135813000     -498.1404564000       13.0284630900
HB         -694.9882079000     -496.4211061000       12.7370153400
SG         -696.5696368000     -496.8694599000       14.4589755700
C          -693.5845662000     -495.7915059000       15.1064138700
O          -693.8157226000     -495.7984678000       16.3192071200
N          -693.2360234000     -494.6515239000       14.4660770600
CD         -692.9143917000     -494.5167917000       13.0479199200
HD         -693.8355495000     -494.3927767000       12.4766953800
HD         -692.3457933000     -495.3646938000       12.6670654800
CG         -692.0670828000     -493.2524503000       12.9311412000
HG         -692.1724320000     -492.7827296000       11.9527059700
HG         -691.0218267000     -493.4883902000       13.1376671700
CB         -692.6291477000     -492.3773555000       14.0466404800
HB         -693.5544600000     -491.9078061000       13.7072724300
HB         -691.9111507000     -491.6215024000       14.3672220900
CA         -692.9189052000     -493.3919699000       15.1572859800
HA         -692.0012432000     -493.5406358000       15.7247628300
C          -694.0040370000     -492.8756118000       16.1157510500
O          -693.6726590000     -492.3763904000       17.1939456400
N          -695.2822066000     -493.0392402000       15.7533433300
H          -695.4592204000     -493.4296951000       14.8378678000
CA         -696.4483836000     -492.8140046000       16.6161601100
HA         -696.1842111000     -493.0994843000       17.6341777400
CB         -696.8087841000     -491.3136333000       16.5937725000
HB         -695.9361601000     -490.7368593000       16.9034707300
HB         -697.0445419000     -491.0320712000       15.5661698600
CG         -697.9969772000     -490.9182867000       17.4927754900
HG         -698.8822042000     -491.4806817000       17.1966677600
CD         -697.7220645000     -491.1737605000       18.9765933800
HD         -696.8170833000     -490.6501631000       19.2855193400
HD         -698.5629621000     -490.8197623000       19.5731703100
HD         -697.6023933000     -492.2397623000       19.1605378400
CD         -698.2987566000     -489.4293300000       17.3179352600
HD         -699.1606469000     -489.1530128000       17.9258892000
HD         -697.4374350000     -488.8328082000       17.6206302800
HD         -698.5297212000     -489.2221371000       16.2726471400
C          -697.6345329000     -493.6836321000       16.1521558200
O          -697.9874856000     -493.6706298000       14.9679197300
N          -698.2636208000     -494.4142846000       17.0802264600
H          -697.8972562000     -494.3868111000       18.0267741600
CA         -699.4301498000     -495.2769532000       16.8262162800
HA         -700.2503829000     -494.6760229000       16.4345652900
HA         -699.1737128000     -496.0258598000       16.0773954800
C          -699.9309900000     -496.0001388000       18.0735981300
O          -700.5810693000     -495.3456777000       18.9182730800
OX         -699.6723602000     -497.2183931000       18.1918580800
   134
 Energy=    -360.088740474168
N          -698.1901005000     -499.4767464000       18.5897044000
H1         -698.6457055000     -498.5972435000       18.8040106300
H2         -698.3957714000     -500.1418615000       19.3207562300
H3         -698.5938014000     -499.8238449000       17.7324620600
CA         -696.7185744000     -499.3061300000       18.4301839200
HA         -696.3462265000     -500.2574377000       18.0436895000
CB         -696.3343170000     -498.2499295000       17.3605228600
HB         -696.7557587000     -497.2774264000       17.6140159700
HB         -695.2481560000     -498.1400210000       17.3471953800
SG         -696.8961069000     -498.6652484000       15.6778587700
C          -695.9969481000     -499.1511424000       19.7884380700
O          -695.3085763000     -500.0861227000       20.1924026900
N          -696.0989696000     -498.0633086000       20.5696904200
H          -695.6470174000     -498.1665786000       21.4702571100
CA         -696.8220481000     -496.7942919000       20.3563341600
HA         -697.4897356000     -496.9142944000       19.5130154000
CB         -697.7631094000     -496.5089647000       21.5467086500
HB         -698.3008469000     -495.5840134000       21.3333190700
HB         -698.5125877000     -497.3019666000       21.5510794600
CG         -697.2259850000     -496.4023127000       22.9739049600
CD         -698.1653856000     -496.3731368000       24.0258817400
HD         -699.2241674000     -496.4331349000       23.8016614700
CE         -697.7456287000     -496.2635228000       25.3662169400
HE         -698.4770780000     -496.2423057000       26.1629952000
CZ         -696.3696645000     -496.1786681000       25.6682535800
OH         -695.9509701000     -496.0707768000       26.9584933700
HH         -696.6944380000     -496.0635137000       27.5754155400
CE         -695.4244312000     -496.2054216000       24.6218089300
HE         -694.3707151000     -496.1384113000       24.8563654200
CD         -695.8508344000     -496.3165788000       23.2836507100
HD         -695.1053332000     -496.3330327000       22.5086489700
C          -695.9414378000     -495.5871544000       19.9638142600
O          -696.4827104000     -494.5672090000       19.5368928600
N          -694.6078414000     -495.7109658000       20.0383420200
H          -694.2320968000     -496.6011990000       20.3362815800
CA         -693.6227953000     -494.6878836000       19.6283752100
HA         -694.0857527000     -494.0569456000       18.8704099100
CB         -693.1986099000     -493.7695120000       20.8078517700
HB         -692.4978432000     -493.0367639000       20.4040218600
CG         -694.3952788000     -492.9669167000       21.3482600200
HG         -695.0744482000     -493.6168320000       21.9000105200
HG         -694.9332702000     -492.5030636000       20.5207684500
HG         -694.0497135000     -492.1726868000       22.0094669900
CG         -692.4605922000     -494.5347862000       21.9335834400
HG         -693.1345684000     -495.2521211000       22.3974005900
HG         -691.6263062000     -495.0900981000       21.5057227800
CD         -691.8842703000     -493.6307358000       23.0307931700
HD         -691.2882819000     -494.2336932000       23.7164695700
HD         -691.2466477000     -492.8655391000       22.5866921300
HD         -692.6869632000     -493.1573653000       23.5959812500
C          -692.3813409000     -495.3216290000       18.9734723000
O          -692.1108759000     -496.5092743000       19.1666711300
N          -691.5998719000     -494.5017770000       18.2578778700
H          -691.9402611000     -493.5531693000       18.1539105500
CA         -690.3158584000     -494.7969787000       17.5855525600
HA         -690.0099523000     -493.8693679000       17.0981316000
CB         -689.2146748000     -495.1122487000       18.6173234900
HB         -689.4794977000     -496.0134009000       19.1717188600
HB         -688.2865356000     -495.3079301000       18.0776295700
CG         -688.9659955000     -493.9581271000       19.6072623900
HG         -689.8764429000     -493.7559109000       20.1709849400
HG         -688.7097827000     -493.0586156000       19.0461706300
CD         -687.8427862000     -494.2382405000       20.6101569400
OE         -687.2106041000     -495.2890957000       20.6378443800
NE         -687.5449792000     -493.3002566000       21.4868430100
HE         -686.8049194000     -493.4775069000       22.1511056600
HE         -688.0463161000     -492.4228601000       21.4856064000
C          -690.3559731000     -495.8459737000       16.4511844200
O          -689.8481851000     -495.5760019000       15.3604804000
N          -690.9683827000     -497.0135054000       16.6654573900
H          -691.3752402000     -497.1558668000       17.5843999500
CA         -691.1465006000     -498.0767932000       15.6704929100
HA         -691.1180485000     -497.6468725000       14.6684374900
CB         -689.9505304000     -499.0459413000       15.7884574400
HB         -689.0212904000     -498.4874299000       15.6731896200
HB         -689.9466605000     -499.5028447000       16.7787912200
CG         -689.9578167000     -500.1514908000       14.7400317400
OD         -690.7331526000     -500.1616111000       13.7913113600
ND         -689.0753092000     -501.1177853000       14.8660205100
HD         -689.0622534000     -501.8546389000       14.1756826600
HD         -688.4264351000     -501.1148574000       15.6401455800
C          -692.5124853000     -498.7880382000       15.8581513300
O          -692.6226471000     -499.7373256000       16.6358243800
N          -693.5949370000     -498.3735364000       15.1894508500
H          -694.4271945000     -498.9263465000       15.3284757800
CA         -693.7271839000     -497.2003112000       14.3136433300
HA         -692.9457802000     -497.2710211000       13.5576940900
CB         -695.0759225000     -497.2869329000       13.5798208400
HB         -695.1590833000     -498.2657664000       13.1032919000
HB         -695.0664971000     -496.5505684000       12.7746520700
SG         -696.5828526000     -496.9869476000       14.5573689200
C          -693.5781526000     -495.8501881000       15.0641002300
O          -693.7820589000     -495.8169760000       16.2813174000
N          -693.2378151000     -494.7333907000       14.3795598100
CD         -692.9551949000     -494.6451208000       12.9493409200
HD         -693.8909901000     -494.5278049000       12.4009105000
HD         -692.4067274000     -495.5101265000       12.5778321700
CG         -692.0973357000     -493.3953176000       12.7700637200
HG         -692.2256959000     -492.9538919000       11.7812574900
HG         -691.0492770000     -493.6378009000       12.9534734300
CB         -692.6163954000     -492.4802465000       13.8740866600
HB         -693.5450983000     -492.0088296000       13.5467877300
HB         -691.8802992000     -491.7246343000       14.1512437800
CA         -692.8868634000     -493.4570900000       15.0228548200
HA         -691.9558084000     -493.5989737000       15.5693687100
C          -693.9380602000     -492.8969125000       15.9940024400
O          -693.5724716000     -492.3677620000       17.0467175800
N          -695.2267701000     -493.0532910000       15.6696529300
H          -695.4330408000     -493.4729695000       14.7734127500
CA         -696.3670144000     -492.7716766000       16.5495238600
HA         -696.0790587000     -493.0075127000       17.5735951400
CB         -696.7123966000     -491.2704199000       16.4580071300
HB         -695.8236358000     -490.6887837000       16.7069440200
HB         -696.9793999000     -491.0415332000       15.4249603300
CG         -697.8649794000     -490.8120884000       17.3731220400
HG         -698.7655014000     -491.3791877000       17.1384851100
CD         -697.5411969000     -490.9893229000       18.8585471000
HD         -696.6169120000     -490.4665818000       19.1059193400
HD         -698.3542902000     -490.5876009000       19.4634307300
HD         -697.4324628000     -492.0454211000       19.0975126800
CD         -698.1570599000     -489.3313280000       17.1266848300
HD         -698.9949200000     -489.0116368000       17.7468551000
HD         -697.2798097000     -488.7297176000       17.3672013600
HD         -698.4212357000     -489.1787973000       16.0798530400
C          -697.5711583000     -493.6517935000       16.1593740600
O          -697.9397448000     -493.7094409000       14.9811688200
N          -698.1976233000     -494.3143870000       17.1393254400
H          -697.8239123000     -494.2306811000       18.0793439400
CA         -699.3825927000     -495.1680601000       16.9439385900
HA         -700.1992686000     -494.5704480000       16.5398321500
HA         -699.1515667000     -495.9517600000       16.2227422400
C          -699.8774854000     -495.8305113000       18.2261098200
O          -700.4812730000     -495.1252855000       19.0640287600
OX         -699.6603313000     -497.0533081000       18.3759671600
   134
 Energy=    -365.974807792829
N          -698.3515920000     -499.4435901000       18.4282049400
H1         -698.7998616000     -498.5722227000       18.6857596300
H2         -698.5412418000     -500.1379419000       19.1359999100
H3         -698.7753208000     -499.7541985000       17.5666254200
CA         -696.8845326000     -499.2661405000       18.2397553300
HA         -696.5246222000     -500.1901372000       17.7818164300
CB         -696.5266746000     -498.1395700000       17.2373443500
HB         -696.9712812000     -497.1949944000       17.5527130800
HB         -695.4436891000     -498.0035606000       17.2333093700
SG         -697.0743365000     -498.4725691000       15.5321691400
C          -696.1182031000     -499.1946016000       19.5786745800
O          -695.4099313000     -500.1470390000       19.8984499400
N          -696.1929164000     -498.1551521000       20.4244399100
H          -695.6605438000     -498.2830720000       21.2759403200
CA         -696.9554518000     -496.8951232000       20.3319258200
HA         -697.7181759000     -496.9876903000       19.5677832700
CB         -697.7135468000     -496.6666080000       21.6524392100
HB         -698.4409181000     -495.8693732000       21.4909815300
HB         -698.2845210000     -497.5655212000       21.8905165300
CG         -696.8575120000     -496.3006719000       22.8551363300
CD         -696.1987801000     -497.3029565000       23.5968392300
HD         -696.3148690000     -498.3458841000       23.3276884600
CE         -695.3971613000     -496.9551959000       24.7025216300
HE         -694.8892592000     -497.7261323000       25.2664401200
CZ         -695.2634149000     -495.6003964000       25.0803899200
OH         -694.4910071000     -495.2553219000       26.1460995700
HH         -694.0867936000     -496.0288030000       26.5598966900
CE         -695.9430738000     -494.6002764000       24.3528121900
HE         -695.8446372000     -493.5652119000       24.6494998600
CD         -696.7395727000     -494.9519462000       23.2458237200
HD         -697.2619847000     -494.1802482000       22.6931621500
C          -696.0998695000     -495.6733015000       19.9331783700
O          -696.6482176000     -494.6812049000       19.4536359600
N          -694.7705117000     -495.7644458000       20.0678276300
H          -694.3994076000     -496.6222065000       20.4512458100
CA         -693.7756218000     -494.7622203000       19.6366252400
HA         -694.2044768000     -494.1851249000       18.8187001700
CB         -693.4063437000     -493.7785601000       20.7791007400
HB         -692.5657072000     -493.1737421000       20.4355768000
CG         -694.5551323000     -492.7910106000       21.0390070600
HG         -695.4006031000     -493.3030307000       21.4907522700
HG         -694.8732950000     -492.3393550000       20.0989812400
HG         -694.2258194000     -491.9926192000       21.7031923700
CG         -692.9503624000     -494.5156265000       22.0608435600
HG         -693.7802144000     -495.0895367000       22.4720929900
HG         -692.1542849000     -495.2147773000       21.8035445800
CD         -692.4119204000     -493.5879653000       23.1568791800
HD         -692.0211627000     -494.1907476000       23.9771072800
HD         -691.6085473000     -492.9674114000       22.7585003300
HD         -693.2086575000     -492.9531426000       23.5439728900
C          -692.5040112000     -495.4286156000       19.0794953700
O          -692.2616479000     -496.6153341000       19.3125306300
N          -691.6744530000     -494.6382619000       18.3854136400
H          -691.9914247000     -493.6857018000       18.2480138000
CA         -690.3766266000     -494.9762998000       17.7635304000
HA         -690.0194209000     -494.0584334000       17.2928706100
CB         -689.3257284000     -495.3361338000       18.8327981500
HB         -689.6251333000     -496.2492507000       19.3485464300
HB         -688.3785401000     -495.5299759000       18.3266056600
CG         -689.1038812000     -494.2165024000       19.8677594900
HG         -690.0299158000     -494.0334590000       20.4129346500
HG         -688.8313856000     -493.2988348000       19.3450445800
CD         -688.0095678000     -494.5326330000       20.8917197100
OE         -687.3854303000     -495.5885854000       20.9069464200
NE         -687.7289006000     -493.6215733000       21.8018612000
HE         -687.0080276000     -493.8227222000       22.4802780300
HE         -688.2244142000     -492.7409211000       21.8120400200
C          -690.4167386000     -496.0189496000       16.6240485100
O          -689.8423792000     -495.7737695000       15.5608299500
N          -691.1044387000     -497.1506935000       16.8013210000
H          -691.5577224000     -497.2768970000       17.7006931600
CA         -691.2940099000     -498.1954285000       15.7882202300
HA         -691.1977235000     -497.7592824000       14.7930164700
CB         -690.1568882000     -499.2273639000       15.9492105200
HB         -689.1953787000     -498.7176318000       15.8830519300
HB         -690.2226065000     -499.6929548000       16.9333083400
CG         -690.1730786000     -500.3213074000       14.8887428000
OD         -690.9025879000     -500.2816865000       13.9051045800
ND         -689.3492610000     -501.3340268000       15.0441150700
HD         -689.3425109000     -502.0641218000       14.3465445700
HD         -688.7380156000     -501.3725367000       15.8473632200
C          -692.7019955000     -498.8368598000       15.9032863000
O          -692.8974302000     -499.7860488000       16.6639650800
N          -693.7288424000     -498.3633934000       15.1874826900
H          -694.5908763000     -498.8798863000       15.2749571200
CA         -693.7662474000     -497.1694864000       14.3304018400
HA         -692.9565031000     -497.2625843000       13.6071593700
CB         -695.0859619000     -497.1771704000       13.5400752400
HB         -695.2033656000     -498.1465236000       13.0514974500
HB         -695.0028411000     -496.4374075000       12.7424201200
SG         -696.6125696000     -496.7988650000       14.4585784400
C          -693.5882867000     -495.8422129000       15.1142587700
O          -693.8269400000     -495.8260441000       16.3255108000
N          -693.1875330000     -494.7251899000       14.4640838000
CD         -692.8518183000     -494.6198156000       13.0467051600
HD         -693.7633563000     -494.4629764000       12.4681651100
HD         -692.3175726000     -495.4952731000       12.6786712200
CG         -691.9506939000     -493.3940321000       12.9219691200
HG         -692.0299729000     -492.9310008000       11.9379019100
HG         -690.9177200000     -493.6719621000       13.1378409400
CB         -692.4817257000     -492.4836443000       14.0243511400
HB         -693.3841109000     -491.9789009000       13.6739438400
HB         -691.7341328000     -491.7555554000       14.3415225600
CA         -692.8211940000     -493.4727870000       15.1438562300
HA         -691.9141505000     -493.6541611000       15.7188421800
C          -693.8890954000     -492.9002450000       16.0896760700
O          -693.5432522000     -492.4038612000       17.1646309400
N          -695.1708635000     -493.0132338000       15.7207137600
H          -695.3588195000     -493.4057692000       14.8083141500
CA         -696.3315927000     -492.7290693000       16.5734270300
HA         -696.0860632000     -493.0143775000       17.5961514000
CB         -696.6274734000     -491.2150348000       16.5326296000
HB         -695.7329556000     -490.6726221000       16.8419530400
HB         -696.8446232000     -490.9349506000       15.5005321200
CG         -697.8032561000     -490.7595683000       17.4194185900
HG         -698.7098344000     -491.2869297000       17.1234451000
CD         -697.5487118000     -491.0102468000       18.9076791900
HD         -696.6241586000     -490.5223061000       19.2170287600
HD         -698.3774324000     -490.6142448000       19.4948194500
HD         -697.4757621000     -492.0782981000       19.1037945700
CD         -698.0400999000     -489.2611073000       17.2266702700
HD         -698.8931582000     -488.9416567000       17.8258840000
HD         -697.1559884000     -488.6985607000       17.5287069700
HD         -698.2555227000     -489.0557258000       16.1777128500
C          -697.5509283000     -493.5523867000       16.1109612700
O          -697.8957599000     -493.5373240000       14.9243589500
N          -698.2162966000     -494.2453647000       17.0426227900
H          -697.8549162000     -494.2231598000       17.9912235000
CA         -699.4170260000     -495.0602373000       16.7901390000
HA         -700.2084404000     -494.4291858000       16.3867437800
HA         -699.1882310000     -495.8275057000       16.0510139200
C          -699.9559189000     -495.7477879000       18.0418041600
O          -700.5826233000     -495.0570564000       18.8751868700
OX         -699.7502834000     -496.9746024000       18.1746835900
