   134
Energy=    -365.974807792829    
N         -698.3515920        -499.4435901         18.42820494    
H1        -698.7998616        -498.5722227         18.68575963    
H2        -698.5412418        -500.1379419         19.13599991    
H3        -698.7753208        -499.7541985         17.56662542    
CA        -696.8845326        -499.2661405         18.23975533    
HA        -696.5246222        -500.1901372         17.78181643    
CB        -696.5266746        -498.1395700         17.23734435    
HB        -696.9712812        -497.1949944         17.55271308    
HB        -695.4436891        -498.0035606         17.23330937    
SG        -697.0743365        -498.4725691         15.53216914    
C         -696.1182031        -499.1946016         19.57867458    
O         -695.4099313        -500.1470390         19.89844994    
N         -696.1929164        -498.1551521         20.42443991    
H         -695.6605438        -498.2830720         21.27594032    
CA        -696.9554518        -496.8951232         20.33192582    
HA        -697.7181759        -496.9876903         19.56778327    
CB        -697.7135468        -496.6666080         21.65243921    
HB        -698.4409181        -495.8693732         21.49098153    
HB        -698.2845210        -497.5655212         21.89051653    
CG        -696.8575120        -496.3006719         22.85513633    
CD        -696.1987801        -497.3029565         23.59683923    
HD        -696.3148690        -498.3458841         23.32768846    
CE        -695.3971613        -496.9551959         24.70252163    
HE        -694.8892592        -497.7261323         25.26644012    
CZ        -695.2634149        -495.6003964         25.08038992    
OH        -694.4910071        -495.2553219         26.14609957    
HH        -694.0867936        -496.0288030         26.55989669    
CE        -695.9430738        -494.6002764         24.35281219    
HE        -695.8446372        -493.5652119         24.64949986    
CD        -696.7395727        -494.9519462         23.24582372    
HD        -697.2619847        -494.1802482         22.69316215    
C         -696.0998695        -495.6733015         19.93317837    
O         -696.6482176        -494.6812049         19.45363596    
N         -694.7705117        -495.7644458         20.06782763    
H         -694.3994076        -496.6222065         20.45124581    
CA        -693.7756218        -494.7622203         19.63662524    
HA        -694.2044768        -494.1851249         18.81870017    
CB        -693.4063437        -493.7785601         20.77910074    
HB        -692.5657072        -493.1737421         20.43557680    
CG        -694.5551323        -492.7910106         21.03900706    
HG        -695.4006031        -493.3030307         21.49075227    
HG        -694.8732950        -492.3393550         20.09898124    
HG        -694.2258194        -491.9926192         21.70319237    
CG        -692.9503624        -494.5156265         22.06084356    
HG        -693.7802144        -495.0895367         22.47209299    
HG        -692.1542849        -495.2147773         21.80354458    
CD        -692.4119204        -493.5879653         23.15687918    
HD        -692.0211627        -494.1907476         23.97710728    
HD        -691.6085473        -492.9674114         22.75850033    
HD        -693.2086575        -492.9531426         23.54397289    
C         -692.5040112        -495.4286156         19.07949537    
O         -692.2616479        -496.6153341         19.31253063    
N         -691.6744530        -494.6382619         18.38541364    
H         -691.9914247        -493.6857018         18.24801380    
CA        -690.3766266        -494.9762998         17.76353040    
HA        -690.0194209        -494.0584334         17.29287061    
CB        -689.3257284        -495.3361338         18.83279815    
HB        -689.6251333        -496.2492507         19.34854643    
HB        -688.3785401        -495.5299759         18.32660566    
CG        -689.1038812        -494.2165024         19.86775949    
HG        -690.0299158        -494.0334590         20.41293465    
HG        -688.8313856        -493.2988348         19.34504458    
CD        -688.0095678        -494.5326330         20.89171971    
OE        -687.3854303        -495.5885854         20.90694642    
NE        -687.7289006        -493.6215733         21.80186120    
HE        -687.0080276        -493.8227222         22.48027803    
HE        -688.2244142        -492.7409211         21.81204002    
C         -690.4167386        -496.0189496         16.62404851    
O         -689.8423792        -495.7737695         15.56082995    
N         -691.1044387        -497.1506935         16.80132100    
H         -691.5577224        -497.2768970         17.70069316    
CA        -691.2940099        -498.1954285         15.78822023    
HA        -691.1977235        -497.7592824         14.79301647    
CB        -690.1568882        -499.2273639         15.94921052    
HB        -689.1953787        -498.7176318         15.88305193    
HB        -690.2226065        -499.6929548         16.93330834    
CG        -690.1730786        -500.3213074         14.88874280    
OD        -690.9025879        -500.2816865         13.90510458    
ND        -689.3492610        -501.3340268         15.04411507    
HD        -689.3425109        -502.0641218         14.34654457    
HD        -688.7380156        -501.3725367         15.84736322    
C         -692.7019955        -498.8368598         15.90328630    
O         -692.8974302        -499.7860488         16.66396508    
N         -693.7288424        -498.3633934         15.18748269    
H         -694.5908763        -498.8798863         15.27495712    
CA        -693.7662474        -497.1694864         14.33040184    
HA        -692.9565031        -497.2625843         13.60715937    
CB        -695.0859619        -497.1771704         13.54007524    
HB        -695.2033656        -498.1465236         13.05149745    
HB        -695.0028411        -496.4374075         12.74242012    
SG        -696.6125696        -496.7988650         14.45857844    
C         -693.5882867        -495.8422129         15.11425877    
O         -693.8269400        -495.8260441         16.32551080    
N         -693.1875330        -494.7251899         14.46408380    
CD        -692.8518183        -494.6198156         13.04670516    
HD        -693.7633563        -494.4629764         12.46816511    
HD        -692.3175726        -495.4952731         12.67867122    
CG        -691.9506939        -493.3940321         12.92196912    
HG        -692.0299729        -492.9310008         11.93790191    
HG        -690.9177200        -493.6719621         13.13784094    
CB        -692.4817257        -492.4836443         14.02435114    
HB        -693.3841109        -491.9789009         13.67394384    
HB        -691.7341328        -491.7555554         14.34152256    
CA        -692.8211940        -493.4727870         15.14385623    
HA        -691.9141505        -493.6541611         15.71884218    
C         -693.8890954        -492.9002450         16.08967607    
O         -693.5432522        -492.4038612         17.16463094    
N         -695.1708635        -493.0132338         15.72071376    
H         -695.3588195        -493.4057692         14.80831415    
CA        -696.3315927        -492.7290693         16.57342703    
HA        -696.0860632        -493.0143775         17.59615140    
CB        -696.6274734        -491.2150348         16.53262960    
HB        -695.7329556        -490.6726221         16.84195304    
HB        -696.8446232        -490.9349506         15.50053212    
CG        -697.8032561        -490.7595683         17.41941859    
HG        -698.7098344        -491.2869297         17.12344510    
CD        -697.5487118        -491.0102468         18.90767919    
HD        -696.6241586        -490.5223061         19.21702876    
HD        -698.3774324        -490.6142448         19.49481945    
HD        -697.4757621        -492.0782981         19.10379457    
CD        -698.0400999        -489.2611073         17.22667027    
HD        -698.8931582        -488.9416567         17.82588400    
HD        -697.1559884        -488.6985607         17.52870697    
HD        -698.2555227        -489.0557258         16.17771285    
C         -697.5509283        -493.5523867         16.11096127    
O         -697.8957599        -493.5373240         14.92435895    
N         -698.2162966        -494.2453647         17.04262279    
H         -697.8549162        -494.2231598         17.99122350    
CA        -699.4170260        -495.0602373         16.79013900    
HA        -700.2084404        -494.4291858         16.38674378    
HA        -699.1882310        -495.8275057         16.05101392    
C         -699.9559189        -495.7477879         18.04180416    
O         -700.5826233        -495.0570564         18.87518687    
OX        -699.7502834        -496.9746024         18.17468359    
   134
Energy=    -360.088740474168    
N         -698.1901005        -499.4767464         18.58970440    
H1        -698.6457055        -498.5972435         18.80401063    
H2        -698.3957714        -500.1418615         19.32075623    
H3        -698.5938014        -499.8238449         17.73246206    
CA        -696.7185744        -499.3061300         18.43018392    
HA        -696.3462265        -500.2574377         18.04368950    
CB        -696.3343170        -498.2499295         17.36052286    
HB        -696.7557587        -497.2774264         17.61401597    
HB        -695.2481560        -498.1400210         17.34719538    
SG        -696.8961069        -498.6652484         15.67785877    
C         -695.9969481        -499.1511424         19.78843807    
O         -695.3085763        -500.0861227         20.19240269    
N         -696.0989696        -498.0633086         20.56969042    
H         -695.6470174        -498.1665786         21.47025711    
CA        -696.8220481        -496.7942919         20.35633416    
HA        -697.4897356        -496.9142944         19.51301540    
CB        -697.7631094        -496.5089647         21.54670865    
HB        -698.3008469        -495.5840134         21.33331907    
HB        -698.5125877        -497.3019666         21.55107946    
CG        -697.2259850        -496.4023127         22.97390496    
CD        -698.1653856        -496.3731368         24.02588174    
HD        -699.2241674        -496.4331349         23.80166147    
CE        -697.7456287        -496.2635228         25.36621694    
HE        -698.4770780        -496.2423057         26.16299520    
CZ        -696.3696645        -496.1786681         25.66825358    
OH        -695.9509701        -496.0707768         26.95849337    
HH        -696.6944380        -496.0635137         27.57541554    
CE        -695.4244312        -496.2054216         24.62180893    
HE        -694.3707151        -496.1384113         24.85636542    
CD        -695.8508344        -496.3165788         23.28365071    
HD        -695.1053332        -496.3330327         22.50864897    
C         -695.9414378        -495.5871544         19.96381426    
O         -696.4827104        -494.5672090         19.53689286    
N         -694.6078414        -495.7109658         20.03834202    
H         -694.2320968        -496.6011990         20.33628158    
CA        -693.6227953        -494.6878836         19.62837521    
HA        -694.0857527        -494.0569456         18.87040991    
CB        -693.1986099        -493.7695120         20.80785177    
HB        -692.4978432        -493.0367639         20.40402186    
CG        -694.3952788        -492.9669167         21.34826002    
HG        -695.0744482        -493.6168320         21.90001052    
HG        -694.9332702        -492.5030636         20.52076845    
HG        -694.0497135        -492.1726868         22.00946699    
CG        -692.4605922        -494.5347862         21.93358344    
HG        -693.1345684        -495.2521211         22.39740059    
HG        -691.6263062        -495.0900981         21.50572278    
CD        -691.8842703        -493.6307358         23.03079317    
HD        -691.2882819        -494.2336932         23.71646957    
HD        -691.2466477        -492.8655391         22.58669213    
HD        -692.6869632        -493.1573653         23.59598125    
C         -692.3813409        -495.3216290         18.97347230    
O         -692.1108759        -496.5092743         19.16667113    
N         -691.5998719        -494.5017770         18.25787787    
H         -691.9402611        -493.5531693         18.15391055    
CA        -690.3158584        -494.7969787         17.58555256    
HA        -690.0099523        -493.8693679         17.09813160    
CB        -689.2146748        -495.1122487         18.61732349    
HB        -689.4794977        -496.0134009         19.17171886    
HB        -688.2865356        -495.3079301         18.07762957    
CG        -688.9659955        -493.9581271         19.60726239    
HG        -689.8764429        -493.7559109         20.17098494    
HG        -688.7097827        -493.0586156         19.04617063    
CD        -687.8427862        -494.2382405         20.61015694    
OE        -687.2106041        -495.2890957         20.63784438    
NE        -687.5449792        -493.3002566         21.48684301    
HE        -686.8049194        -493.4775069         22.15110566    
HE        -688.0463161        -492.4228601         21.48560640    
C         -690.3559731        -495.8459737         16.45118442    
O         -689.8481851        -495.5760019         15.36048040    
N         -690.9683827        -497.0135054         16.66545739    
H         -691.3752402        -497.1558668         17.58439995    
CA        -691.1465006        -498.0767932         15.67049291    
HA        -691.1180485        -497.6468725         14.66843749    
CB        -689.9505304        -499.0459413         15.78845744    
HB        -689.0212904        -498.4874299         15.67318962    
HB        -689.9466605        -499.5028447         16.77879122    
CG        -689.9578167        -500.1514908         14.74003174    
OD        -690.7331526        -500.1616111         13.79131136    
ND        -689.0753092        -501.1177853         14.86602051    
HD        -689.0622534        -501.8546389         14.17568266    
HD        -688.4264351        -501.1148574         15.64014558    
C         -692.5124853        -498.7880382         15.85815133    
O         -692.6226471        -499.7373256         16.63582438    
N         -693.5949370        -498.3735364         15.18945085    
H         -694.4271945        -498.9263465         15.32847578    
CA        -693.7271839        -497.2003112         14.31364333    
HA        -692.9457802        -497.2710211         13.55769409    
CB        -695.0759225        -497.2869329         13.57982084    
HB        -695.1590833        -498.2657664         13.10329190    
HB        -695.0664971        -496.5505684         12.77465207    
SG        -696.5828526        -496.9869476         14.55736892    
C         -693.5781526        -495.8501881         15.06410023    
O         -693.7820589        -495.8169760         16.28131740    
N         -693.2378151        -494.7333907         14.37955981    
CD        -692.9551949        -494.6451208         12.94934092    
HD        -693.8909901        -494.5278049         12.40091050    
HD        -692.4067274        -495.5101265         12.57783217    
CG        -692.0973357        -493.3953176         12.77006372    
HG        -692.2256959        -492.9538919         11.78125749    
HG        -691.0492770        -493.6378009         12.95347343    
CB        -692.6163954        -492.4802465         13.87408666    
HB        -693.5450983        -492.0088296         13.54678773    
HB        -691.8802992        -491.7246343         14.15124378    
CA        -692.8868634        -493.4570900         15.02285482    
HA        -691.9558084        -493.5989737         15.56936871    
C         -693.9380602        -492.8969125         15.99400244    
O         -693.5724716        -492.3677620         17.04671758    
N         -695.2267701        -493.0532910         15.66965293    
H         -695.4330408        -493.4729695         14.77341275    
CA        -696.3670144        -492.7716766         16.54952386    
HA        -696.0790587        -493.0075127         17.57359514    
CB        -696.7123966        -491.2704199         16.45800713    
HB        -695.8236358        -490.6887837         16.70694402    
HB        -696.9793999        -491.0415332         15.42496033    
CG        -697.8649794        -490.8120884         17.37312204    
HG        -698.7655014        -491.3791877         17.13848511    
CD        -697.5411969        -490.9893229         18.85854710    
HD        -696.6169120        -490.4665818         19.10591934    
HD        -698.3542902        -490.5876009         19.46343073    
HD        -697.4324628        -492.0454211         19.09751268    
CD        -698.1570599        -489.3313280         17.12668483    
HD        -698.9949200        -489.0116368         17.74685510    
HD        -697.2798097        -488.7297176         17.36720136    
HD        -698.4212357        -489.1787973         16.07985304    
C         -697.5711583        -493.6517935         16.15937406    
O         -697.9397448        -493.7094409         14.98116882    
N         -698.1976233        -494.3143870         17.13932544    
H         -697.8239123        -494.2306811         18.07934394    
CA        -699.3825927        -495.1680601         16.94393859    
HA        -700.1992686        -494.5704480         16.53983215    
HA        -699.1515667        -495.9517600         16.22274224    
C         -699.8774854        -495.8305113         18.22610982    
O         -700.4812730        -495.1252855         19.06402876    
OX        -699.6603313        -497.0533081         18.37596716    
   134
Energy=    -365.953451181108    
N         -698.1680910        -499.6280765         18.41002773    
H1        -698.6513965        -498.7794112         18.67973581    
H2        -698.3233447        -500.3373346         19.11139419    
H3        -698.5838155        -499.9473672         17.54772346    
CA        -696.7111884        -499.3861884         18.21460467    
HA        -696.3152279        -500.2890869         17.74449476    
CB        -696.4082162        -498.2348295         17.22231430    
HB        -696.8905625        -497.3134717         17.55063493    
HB        -695.3320535        -498.0527208         17.21314162    
SG        -696.9523883        -498.5727605         15.51699187    
C         -695.9398836        -499.2961764         19.54955333    
O         -695.1895956        -500.2208467         19.85466731    
N         -696.0532966        -498.2698770         20.40699449    
H         -695.5104005        -498.3839796         21.25378682    
CA        -696.8693238        -497.0425671         20.33271468    
HA        -697.6324252        -497.1595908         19.57230996    
CB        -697.6277768        -496.8602325         21.66016902    
HB        -698.3905426        -496.0943028         21.51098842    
HB        -698.1571956        -497.7855806         21.89295319    
CG        -696.7809612        -496.4683506         22.86127147    
CD        -696.7227648        -495.1198801         23.26659591    
HD        -697.2839213        -494.3676628         22.72503848    
CE        -695.9376692        -494.7421209         24.37358637    
HE        -695.8917743        -493.7046284         24.67575597    
CZ        -695.2083614        -495.7194887         25.08604524    
OH        -694.4439072        -495.3656494         26.15462185    
HH        -694.4850033        -494.4158836         26.32470455    
CE        -695.2815851        -497.0732471         24.69233747    
HE        -694.7323728        -497.8197786         25.24975740    
CD        -696.0721249        -497.4472131         23.58766290    
HD        -696.1409671        -498.4915196         23.30810101    
C         -696.0692017        -495.7813100         19.94191603    
O         -696.6623659        -494.8084950         19.47643366    
N         -694.7363655        -495.8171521         20.06765011    
H         -694.3266444        -496.6623136         20.43957196    
CA        -693.7878774        -494.7688905         19.64155424    
HA        -694.2462298        -494.2016657         18.83276908    
CB        -693.4533841        -493.7830192         20.79274692    
HB        -692.6413934        -493.1392888         20.45105591    
CG        -694.6415241        -492.8483759         21.07081570    
HG        -695.4615359        -493.4009943         21.52176922    
HG        -694.9847519        -492.4003404         20.13788551    
HG        -694.3422406        -492.0439939         21.74195520    
CG        -692.9587446        -494.5140110         22.06356080    
HG        -693.7620587        -495.1245035         22.47492975    
HG        -692.1374533        -495.1783410         21.79355103    
CD        -692.4491461        -493.5762755         23.16479874    
HD        -692.0292943        -494.1709966         23.97651310    
HD        -691.6733012        -492.9212928         22.76693425    
HD        -693.2671146        -492.9763651         23.56307817    
C         -692.4927852        -495.3744801         19.06926633    
O         -692.1987228        -496.5522849         19.28754675    
N         -691.7021041        -494.5420496         18.37900533    
H         -692.0601133        -493.6023927         18.25415988    
CA        -690.3952236        -494.8178326         17.74546229    
HA        -690.0803917        -493.8805433         17.28289875    
CB        -689.3229706        -495.1443199         18.80418022    
HB        -689.5798961        -496.0749645         19.31143998    
HB        -688.3717574        -495.2921007         18.29005392    
CG        -689.1420793        -494.0277132         19.85031442    
HG        -690.0714120        -493.8903376         20.40324418    
HG        -688.9123735        -493.0935634         19.33631282    
CD        -688.0284966        -494.3081744         20.86384002    
OE        -687.3599440        -495.3366924         20.86331139    
NE        -687.7807238        -493.3960293         21.78240467    
HE        -687.0474387        -493.5737543         22.45402710    
HE        -688.3131144        -492.5374241         21.80554986    
C         -690.3985702        -495.8487818         16.59469087    
O         -689.8424741        -495.5677200         15.53064338    
N         -691.0360724        -497.0107714         16.76371865    
H         -691.4774600        -497.1659763         17.66447061    
CA        -691.1876523        -498.0516661         15.74032418    
HA        -691.1166821        -497.6011061         14.74942447    
CB        -690.0065047        -499.0357519         15.88285679    
HB        -689.0680728        -498.4847260         15.81637100    
HB        -690.0457456        -499.5142940         16.86214264    
CG        -689.9830951        -500.1179066         14.81049582    
OD        -690.7201173        -500.0988522         13.83185701    
ND        -689.1158795        -501.0961707         14.94961035    
HD        -689.0826562        -501.8177652         14.24399998    
HD        -688.4982615        -501.1172218         15.74862051    
C         -692.5662003        -498.7538639         15.85702127    
O         -692.7159093        -499.7186561         16.60838572    
N         -693.6170421        -498.3170315         15.15284401    
H         -694.4556721        -498.8707711         15.23997347    
CA        -693.7110000        -497.1167105         14.30916363    
HA        -692.9028476        -497.1674188         13.57995221    
CB        -695.0344017        -497.1722798         13.52696306    
HB        -695.1135813        -498.1404564         13.02846309    
HB        -694.9882079        -496.4211061         12.73701534    
SG        -696.5696368        -496.8694599         14.45897557    
C         -693.5845662        -495.7915059         15.10641387    
O         -693.8157226        -495.7984678         16.31920712    
N         -693.2360234        -494.6515239         14.46607706    
CD        -692.9143917        -494.5167917         13.04791992    
HD        -693.8355495        -494.3927767         12.47669538    
HD        -692.3457933        -495.3646938         12.66706548    
CG        -692.0670828        -493.2524503         12.93114120    
HG        -692.1724320        -492.7827296         11.95270597    
HG        -691.0218267        -493.4883902         13.13766717    
CB        -692.6291477        -492.3773555         14.04664048    
HB        -693.5544600        -491.9078061         13.70727243    
HB        -691.9111507        -491.6215024         14.36722209    
CA        -692.9189052        -493.3919699         15.15728598    
HA        -692.0012432        -493.5406358         15.72476283    
C         -694.0040370        -492.8756118         16.11575105    
O         -693.6726590        -492.3763904         17.19394564    
N         -695.2822066        -493.0392402         15.75334333    
H         -695.4592204        -493.4296951         14.83786780    
CA        -696.4483836        -492.8140046         16.61616011    
HA        -696.1842111        -493.0994843         17.63417774    
CB        -696.8087841        -491.3136333         16.59377250    
HB        -695.9361601        -490.7368593         16.90347073    
HB        -697.0445419        -491.0320712         15.56616986    
CG        -697.9969772        -490.9182867         17.49277549    
HG        -698.8822042        -491.4806817         17.19666776    
CD        -697.7220645        -491.1737605         18.97659338    
HD        -696.8170833        -490.6501631         19.28551934    
HD        -698.5629621        -490.8197623         19.57317031    
HD        -697.6023933        -492.2397623         19.16053784    
CD        -698.2987566        -489.4293300         17.31793526    
HD        -699.1606469        -489.1530128         17.92588920    
HD        -697.4374350        -488.8328082         17.62063028    
HD        -698.5297212        -489.2221371         16.27264714    
C         -697.6345329        -493.6836321         16.15215582    
O         -697.9874856        -493.6706298         14.96791973    
N         -698.2636208        -494.4142846         17.08022646    
H         -697.8972562        -494.3868111         18.02677416    
CA        -699.4301498        -495.2769532         16.82621628    
HA        -700.2503829        -494.6760229         16.43456529    
HA        -699.1737128        -496.0258598         16.07739548    
C         -699.9309900        -496.0001388         18.07359813    
O         -700.5810693        -495.3456777         18.91827308    
OX        -699.6723602        -497.2183931         18.19185808    
