    18
Energy=    -6256.57151885685    
O         -1.042257958         1.497842988       -0.7090825118    
O          2.721406314        -1.405750459        0.1892057652    
O          1.736561527         1.008538361       -0.9012601065    
O         -2.789521476       -0.4404805050        0.4011567464    
O          1.176621347        -2.818693318         2.085935607    
O         -1.634368274        -2.416396883         2.058470828    
H          1.746275897        -2.703595760         2.862920300    
H          3.105440498        -1.814778003       -0.6023663956    
H          2.358168285       -0.4974603849       -0.1802464451    
H         0.7045122836         1.160873508       -0.8791946525    
H         -1.675040741        0.7783028542       -0.2916535227    
H         -1.638371491         2.021204885        -1.269257702    
H         -2.364129351        -1.121837350         1.065760656    
H         -3.273580791        -1.038476898       -0.1891124401    
H          1.726008678        -2.326186088         1.347094352    
H        -0.5997108396        -2.558294695         2.064358504    
H         -1.903718908        -2.717834602         2.941337078    
H          2.064736984         1.855518904       -0.5627416604    
    18
Energy=    -6256.57151885667    
O         -1.042257961         1.497842995       -0.7090825192    
O          2.721406310        -1.405750462        0.1892057553    
O          1.736561521         1.008538371       -0.9012600869    
O         -2.789521465       -0.4404805198        0.4011567304    
O          1.176621340        -2.818693327         2.085935589    
O         -1.634368277        -2.416396869         2.058470853    
H          1.746275905        -2.703595798         2.862920274    
H          3.105440516        -1.814777999       -0.6023664018    
H          2.358168285       -0.4974603851       -0.1802464464    
H         0.7045122755         1.160873512       -0.8791946387    
H         -1.675040743        0.7783028617       -0.2916535283    
H         -1.638371491         2.021204877        -1.269257730    
H         -2.364129340        -1.121837361         1.065760647    
H         -3.273580783        -1.038476914       -0.1891124496    
H          1.726008668        -2.326186093         1.347094336    
H        -0.5997108451        -2.558294697         2.064358517    
H         -1.903718906        -2.717834546         2.941337119    
H          2.064736975         1.855518912       -0.5627416241    
    18
Energy=    -6256.57151885404    
O         -1.042257948         1.497842939       -0.7090825227    
O          2.721406344        -1.405750491        0.1892057547    
O          1.736561512         1.008538340       -0.9012600793    
O         -2.789521524       -0.4404805095        0.4011567306    
O          1.176621340        -2.818693308         2.085935580    
O         -1.634368252        -2.416396837         2.058470804    
H          1.746275888        -2.703595671         2.862920263    
H          3.105440594        -1.814777991       -0.6023663938    
H          2.358168299       -0.4974604177       -0.1802464642    
H         0.7045122544         1.160873481       -0.8791946249    
H         -1.675040746        0.7783028061       -0.2916535212    
H         -1.638371481         2.021204909        -1.269257644    
H         -2.364129380        -1.121837348         1.065760638    
H         -3.273580859        -1.038476917       -0.1891124261    
H          1.726008683        -2.326186106         1.347094305    
H        -0.5997108158        -2.558294675         2.064358496    
H         -1.903718899        -2.717834505         2.941337069    
H          2.064736974         1.855518858       -0.5627415663    
    18
Energy=    -6256.57151885678    
O         -1.042257912         1.497842977       -0.7090823818    
O          2.721406342        -1.405750451        0.1892057448    
O          1.736561519         1.008538271       -0.9012602426    
O         -2.789521529       -0.4404804970        0.4011567351    
O          1.176621320        -2.818693222         2.085935610    
O         -1.634368318        -2.416396873         2.058470834    
H          1.746275853        -2.703595569         2.862920304    
H          3.105440714        -1.814777937       -0.6023663566    
H          2.358168257       -0.4974604172       -0.1802465195    
H         0.7045122774         1.160873420       -0.8791947168    
H         -1.675040697        0.7783028295       -0.2916534381    
H         -1.638371471         2.021204944        -1.269257481    
H         -2.364129437        -1.121837311         1.065760691    
H         -3.273580711        -1.038476920       -0.1891125305    
H          1.726008655        -2.326186056         1.347094318    
H        -0.5997108823        -2.558294644         2.064358518    
H         -1.903718967        -2.717834767         2.941337022    
H          2.064736971         1.855518778       -0.5627417118    
    18
Energy=    -6256.57151885694    
O         -1.042257853         1.497842975       -0.7090822393    
O          2.721406318        -1.405750463        0.1892057239    
O          1.736561531         1.008538234       -0.9012603432    
O         -2.789521551       -0.4404804663        0.4011567188    
O          1.176621332        -2.818693105         2.085935692    
O         -1.634368359        -2.416396950         2.058470746    
H          1.746275917        -2.703595358         2.862920336    
H          3.105440667        -1.814777970       -0.6023663674    
H          2.358168225       -0.4974604442       -0.1802465889    
H         0.7045122935         1.160873367       -0.8791947468    
H         -1.675040632        0.7783027724       -0.2916533670    
H         -1.638371427         2.021204931        -1.269257338    
H         -2.364129497        -1.121837268         1.065760695    
H         -3.273580648        -1.038476931       -0.1891125763    
H          1.726008635        -2.326185994         1.347094342    
H        -0.5997109144        -2.558294625         2.064358463    
H         -1.903718987        -2.717834854         2.941336939    
H          2.064736933         1.855518706       -0.5627416915    
    18
Energy=    -6256.57151885886    
O         -1.042257827         1.497843025       -0.7090822153    
O          2.721406259        -1.405750425        0.1892057975    
O          1.736561578         1.008538262       -0.9012603775    
O         -2.789521512       -0.4404804482        0.4011567366    
O          1.176621338        -2.818693128         2.085935722    
O         -1.634368408        -2.416397047         2.058470686    
H          1.746275986        -2.703595482         2.862920333    
H          3.105440432        -1.814777947       -0.6023663601    
H          2.358168233       -0.4974603795       -0.1802465096    
H         0.7045123458         1.160873354       -0.8791947788    
H         -1.675040596        0.7783027835       -0.2916533925    
H         -1.638371368         2.021204874        -1.269257448    
H         -2.364129455        -1.121837215         1.065760738    
H         -3.273580618        -1.038476988       -0.1891124818    
H          1.726008625        -2.326185969         1.347094392    
H        -0.5997109685        -2.558294690         2.064358363    
H         -1.903718928        -2.717834812         2.941336954    
H          2.064736866         1.855518787       -0.5627417590    
    18
Energy=    -6256.57151885956    
O         -1.042257826         1.497843070       -0.7090822445    
O          2.721406219        -1.405750403        0.1892058302    
O          1.736561602         1.008538323       -0.9012603364    
O         -2.789521466       -0.4404804609        0.4011567293    
O          1.176621340        -2.818693191         2.085935709    
O         -1.634368427        -2.416397062         2.058470699    
H          1.746276035        -2.703595666         2.862920297    
H          3.105440234        -1.814777958       -0.6023663877    
H          2.358168246       -0.4974603239       -0.1802464318    
H         0.7045123604         1.160873376       -0.8791947667    
H         -1.675040597        0.7783028099       -0.2916534496    
H         -1.638371318         2.021204829        -1.269257616    
H         -2.364129394        -1.121837195         1.065760761    
H         -3.273580573        -1.038477072       -0.1891124190    
H          1.726008622        -2.326185975         1.347094409    
H        -0.5997109934        -2.558294742         2.064358334    
H         -1.903718887        -2.717834697         2.941337025    
H          2.064736807         1.855518894       -0.5627417448    
    18
Energy=    -6256.57151885098    
O         -1.042257897         1.497843376       -0.7090822586    
O          2.721406034        -1.405750266        0.1892059379    
O          1.736561611         1.008538534       -0.9012603146    
O         -2.789521219       -0.4404805545        0.4011565653    
O          1.176621325        -2.818693617         2.085935526    
O         -1.634368485        -2.416396797         2.058471109    
H          1.746276058        -2.703596530         2.862920049    
H          3.105439767        -1.814778059       -0.6023663680    
H          2.358168136       -0.4974601512       -0.1802462843    
H         0.7045122466         1.160873599       -0.8791947836    
H         -1.675040618        0.7783029140       -0.2916535606    
H         -1.638371272         2.021204699        -1.269258092    
H         -2.364129170        -1.121837152         1.065760879    
H         -3.273579883        -1.038477470       -0.1891126739    
H          1.726008598        -2.326185965         1.347094411    
H        -0.5997110344        -2.558294837         2.064358443    
H         -1.903718853        -2.717834363         2.941337517    
H          2.064736639         1.855519195       -0.5627417039    
    18
Energy=    -6256.57151888146    
O         -1.042258310         1.497843029       -0.7090830157    
O          2.721406897        -1.405750922        0.1892059686    
O          1.736561245         1.008537848       -0.9012595198    
O         -2.789522112       -0.4404799885        0.4011571069    
O          1.176621744        -2.818693016         2.085935830    
O         -1.634367883        -2.416397055         2.058469804    
H          1.746276347        -2.703594861         2.862920555    
H          3.105440105        -1.814778330       -0.6023666549    
H          2.358168646       -0.4974608545       -0.1802459605    
H         0.7045121178         1.160872654       -0.8791945511    
H         -1.675041290        0.7783033222       -0.2916537969    
H         -1.638371513         2.021205249        -1.269258199    
H         -2.364129358        -1.121836547         1.065760644    
H         -3.273581323        -1.038476911       -0.1891117086    
H          1.726009193        -2.326186375         1.347094361    
H        -0.5997105461        -2.558294747         2.064357581    
H         -1.903718172        -2.717834251         2.941336297    
H          2.064736192         1.855518312       -0.5627403428    
    18
Energy=    -6256.57151889395    
O         -1.042258825         1.497844554       -0.7090832527    
O          2.721405575        -1.405751064        0.1892070373    
O          1.736560263         1.008536500       -0.9012602661    
O         -2.789522830       -0.4404790849        0.4011565696    
O          1.176623624        -2.818694499         2.085937899    
O         -1.634365521        -2.416396233         2.058468227    
H          1.746277321        -2.703591637         2.862922641    
H          3.105435204        -1.814779346       -0.6023671003    
H          2.358166556       -0.4974612195       -0.1802444665    
H         0.7045112973         1.160872848       -0.8791955400    
H         -1.675041220        0.7783057186       -0.2916518478    
H         -1.638372876         2.021205126        -1.269258831    
H         -2.364129377        -1.121835206         1.065759957    
H         -3.273580042        -1.038476216       -0.1891134357    
H          1.726010225        -2.326188112         1.347095684    
H        -0.5997081907        -2.558294501         2.064356509    
H         -1.903715967        -2.717836657         2.941333440    
H          2.064736766         1.855515585       -0.5627388260    
    18
Energy=    -6256.57151889125    
O         -1.042259688         1.497844258       -0.7090855259    
O          2.721405466        -1.405750786        0.1892079440    
O          1.736558917         1.008534608       -0.9012591996    
O         -2.789524334       -0.4404780122        0.4011556948    
O          1.176625293        -2.818696908         2.085938055    
O         -1.634363955        -2.416393491         2.058469070    
H          1.746279476        -2.703591284         2.862922037    
H          3.105436262        -1.814777562       -0.6023663803    
H          2.358164144       -0.4974617138       -0.1802439531    
H         0.7045101230         1.160872952       -0.8791956460    
H         -1.675041339        0.7783067952       -0.2916509106    
H         -1.638375670         2.021204381        -1.269259488    
H         -2.364130515        -1.121833803         1.065758788    
H         -3.273580330        -1.038474215       -0.1891162026    
H          1.726010813        -2.326190931         1.347094856    
H        -0.5997068124        -2.558292870         2.064356496    
H         -1.903713600        -2.717836602         2.941333720    
H          2.064737733         1.855511741       -0.5627349559    
    18
Energy=    -6256.57151890645    
O         -1.042259282         1.497839941       -0.7090921884    
O          2.721406395        -1.405747228        0.1892107248    
O          1.736560264         1.008534566       -0.9012555598    
O         -2.789523381       -0.4404767052        0.4011548880    
O          1.176625579        -2.818702097         2.085934502    
O         -1.634368110        -2.416392494         2.058475824    
H          1.746284236        -2.703599651         2.862915158    
H          3.105442531        -1.814768462       -0.6023631031    
H          2.358162910       -0.4974584797       -0.1802423604    
H         0.7045118205         1.160875746       -0.8791956462    
H         -1.675038623        0.7783021480       -0.2916537422    
H         -1.638381113         2.021200350        -1.269260691    
H         -2.364133284        -1.121834551         1.065757699    
H         -3.273585923        -1.038468030       -0.1891169412    
H          1.726008901        -2.326194660         1.347090736    
H        -0.5997114398        -2.558291430         2.064358793    
H         -1.903712472        -2.717834511         2.941342571    
H          2.064742972         1.855512105       -0.5627362658    
    18
Energy=    -6256.57151894656    
O         -1.042258695         1.497837383       -0.7090964922    
O          2.721407411        -1.405744338        0.1892122593    
O          1.736562221         1.008537261       -0.9012521897    
O         -2.789521659       -0.4404771899        0.4011543250    
O          1.176624456        -2.818705972         2.085930592    
O         -1.634371795        -2.416393164         2.058480246    
H          1.746286794        -2.703611645         2.862909532    
H          3.105444557        -1.814762818       -0.6023620559    
H          2.358164016       -0.4974549916       -0.1802402653    
H         0.7045135624         1.160878023       -0.8791952415    
H         -1.675037042        0.7782989760       -0.2916569586    
H         -1.638382570         2.021196173        -1.269264914    
H         -2.364133778        -1.121835742         1.065757602    
H         -3.273589729        -1.038466925       -0.1891149136    
H          1.726007503        -2.326196294         1.347088289    
H        -0.5997156320        -2.558292697         2.064359921    
H         -1.903711985        -2.717826028         2.941351618    
H          2.064744345         1.855516544       -0.5627369539    
    18
Energy=    -6256.57151888208    
O         -1.042263305         1.497841586       -0.7090949038    
O          2.721413023        -1.405744805        0.1892154973    
O          1.736557436         1.008531413       -0.9012399101    
O         -2.789525732       -0.4404768493        0.4011514226    
O          1.176624041        -2.818709194         2.085924776    
O         -1.634369550        -2.416384112         2.058481510    
H          1.746295655        -2.703633592         2.862899646    
H          3.105450054        -1.814757848       -0.6023616458    
H          2.358165139       -0.4974566377       -0.1802313552    
H         0.7045078972         1.160878010       -0.8791828941    
H         -1.675041248        0.7783005127       -0.2916589573    
H         -1.638385365         2.021188410        -1.269276159    
H         -2.364139082        -1.121834620         1.065755105    
H         -3.273589723        -1.038468692       -0.1891192385    
H          1.726010487        -2.326199271         1.347086649    
H        -0.5997154510        -2.558287753         2.064358388    
H         -1.903704988        -2.717805891         2.941357706    
H          2.064742695         1.855515889       -0.5627412389    
    18
Energy=    -6256.57151851284    
O         -1.042275800         1.497859593       -0.7090890489    
O          2.721413958        -1.405749964        0.1892258229    
O          1.736538708         1.008512348       -0.9012455771    
O         -2.789527847       -0.4404648730        0.4011546646    
O          1.176633710        -2.818714169         2.085932947    
O         -1.634354775        -2.416376919         2.058469401    
H          1.746299431        -2.703631364         2.862910876    
H          3.105467544        -1.814756340       -0.6023475647    
H          2.358158024       -0.4974639654       -0.1802243674    
H         0.7044916729         1.160868604       -0.8791829472    
H         -1.675050233        0.7783138691       -0.2916569710    
H         -1.638395202         2.021196636        -1.269282374    
H         -2.364136132        -1.121827813         1.065752581    
H         -3.273593533        -1.038449607       -0.1891213230    
H          1.726021068        -2.326203214         1.347093649    
H        -0.5996993742        -2.558284523         2.064349537    
H         -1.903698630        -2.717822992         2.941334213    
H          2.064739393         1.855491250       -0.5627491189    
    18
Energy=    -6256.57151826024    
O         -1.042284473         1.497866621       -0.7090884136    
O          2.721416965        -1.405751154        0.1892317988    
O          1.736528737         1.008505188       -0.9012401659    
O         -2.789532275       -0.4404629819        0.4011522690    
O          1.176635494        -2.818722126         2.085927822    
O         -1.634345561        -2.416365696         2.058466014    
H          1.746307067        -2.703656196         2.862904666    
H          3.105478713        -1.814752392       -0.6023410367    
H          2.358154405       -0.4974674148       -0.1802163284    
H         0.7044815529         1.160865204       -0.8791773126    
H         -1.675058647        0.7783196157       -0.2916585131    
H         -1.638399530         2.021193212        -1.269295150    
H         -2.364135980        -1.121824654         1.065749294    
H         -3.273593360        -1.038448423       -0.1891265954    
H          1.726024794        -2.326206582         1.347092506    
H        -0.5996906453        -2.558281128         2.064344904    
H         -1.903687436        -2.717795422         2.941337501    
H          2.064732163         1.855480886       -0.5627388603    
    18
Energy=    -6256.57151787475    
O         -1.042283568         1.497868565       -0.7090744788    
O          2.721409958        -1.405759449        0.1892272970    
O          1.736525245         1.008493639       -0.9012579757    
O         -2.789538124       -0.4404599204        0.4011560486    
O          1.176636322        -2.818706678         2.085940138    
O         -1.634335291        -2.416363257         2.058456189    
H          1.746296262        -2.703602012         2.862920282    
H          3.105480614        -1.814765038       -0.6023399445    
H          2.358146039       -0.4974794473       -0.1802273031    
H         0.7044797372         1.160859578       -0.8791844245    
H         -1.675060508        0.7783243528       -0.2916448320    
H         -1.638397905         2.021207205        -1.269269236    
H         -2.364138973        -1.121822952         1.065750609    
H         -3.273579454        -1.038444552       -0.1891386880    
H          1.726022474        -2.326198965         1.347095673    
H        -0.5996772607        -2.558271925         2.064345320    
H         -1.903689763        -2.717841468         2.941306631    
H          2.064736178         1.855458880       -0.5627369063    
    18
Energy=    -6256.57151755826    
O         -1.042280457         1.497856688       -0.7090793688    
O          2.721404479        -1.405753931        0.1892263929    
O          1.736532344         1.008503180       -0.9012611607    
O         -2.789536091       -0.4404678098        0.4011515333    
O          1.176626171        -2.818705782         2.085928707    
O         -1.634338527        -2.416364342         2.058463960    
H          1.746297439        -2.703627145         2.862906131    
H          3.105480123        -1.814759472       -0.6023388405    
H          2.358143880       -0.4974733213       -0.1802290233    
H         0.7044864572         1.160864324       -0.8791900060    
H         -1.675058426        0.7783140777       -0.2916466750    
H         -1.638397578         2.021198116        -1.269266948    
H         -2.364139809        -1.121829282         1.065750314    
H         -3.273575422        -1.038450391       -0.1891461959    
H          1.726010760        -2.326191782         1.347085608    
H        -0.5996793788        -2.558272971         2.064347448    
H         -1.903680688        -2.717803594         2.941332903    
H          2.064736707         1.855459994       -0.5627103810    
    18
Energy=    -6256.57151735340    
O         -1.042281397         1.497877336       -0.7090658940    
O          2.721407279        -1.405759224        0.1892331558    
O          1.736518001         1.008466609       -0.9013097327    
O         -2.789530680       -0.4404492479        0.4011604859    
O          1.176639203        -2.818697842         2.085960571    
O         -1.634319774        -2.416364309         2.058451479    
H          1.746271774        -2.703547968         2.862956523    
H          3.105499370        -1.814769998       -0.6023167555    
H          2.358132467       -0.4974908014       -0.1802436697    
H         0.7044744545         1.160848131       -0.8792232887    
H         -1.675073407        0.7783365833       -0.2916310179    
H         -1.638413046         2.021260077        -1.269204487    
H         -2.364134030        -1.121812719         1.065754124    
H         -3.273543505        -1.038432404       -0.1891618872    
H          1.726013686        -2.326194919         1.347105814    
H        -0.5996610871        -2.558262339         2.064354750    
H         -1.903699119        -2.717932445         2.941263002    
H          2.064731796         1.855422036       -0.5627587751    
    18
Energy=    -6256.57151773190    
O         -1.042321953         1.497903015       -0.7090688308    
O          2.721450113        -1.405760906        0.1892767075    
O          1.736466089         1.008425257       -0.9012969452    
O         -2.789575812       -0.4404255016        0.4011589909    
O          1.176664394        -2.818760221         2.085947488    
O         -1.634281851        -2.416300971         2.058426310    
H          1.746298781        -2.703620189         2.862941424    
H          3.105599851        -1.814755273       -0.6022558315    
H          2.358132058       -0.4975240770       -0.1802227925    
H         0.7044257017         1.160820168       -0.8792201806    
H         -1.675113925        0.7783731565       -0.2916330916    
H         -1.638433776         2.021295058        -1.269218834    
H         -2.364139778        -1.121773512         1.065741573    
H         -3.273560707        -1.038437244       -0.1891561219    
H          1.726045594        -2.326229640         1.347115239    
H        -0.5996231939        -2.558235355         2.064347318    
H         -1.903688221        -2.717884842         2.941225030    
H          2.064688617         1.855387632       -0.5627830541    
    18
Energy=    -6256.57151800359    
O         -1.042343305         1.497925264       -0.7090764552    
O          2.721473626        -1.405754231        0.1893042200    
O          1.736438395         1.008401251       -0.9012947820    
O         -2.789586316       -0.4404106266        0.4011554867    
O          1.176681417        -2.818798787         2.085944405    
O         -1.634265303        -2.416275163         2.058416763    
H          1.746311348        -2.703684950         2.862944875    
H          3.105644726        -1.814742761       -0.6022197371    
H          2.358135034       -0.4975305229       -0.1802062417    
H         0.7043995694         1.160806436       -0.8792257843    
H         -1.675137568        0.7783955826       -0.2916430654    
H         -1.638453042         2.021320737        -1.269226692    
H         -2.364136702        -1.121750592         1.065736988    
H         -3.273566869        -1.038435771       -0.1891505521    
H          1.726066075        -2.326253700         1.347126162    
H        -0.5996103722        -2.558230765         2.064338789    
H         -1.903680117        -2.717860130         2.941212449    
H          2.064661387         1.855375285       -0.5628124287    
    18
Energy=    -6256.57151802458    
O         -1.042358394         1.497946141       -0.7090717813    
O          2.721488451        -1.405755484        0.1893188099    
O          1.736416957         1.008381861       -0.9012907496    
O         -2.789592042       -0.4404002932        0.4011546802    
O          1.176696033        -2.818813331         2.085948620    
O         -1.634255833        -2.416259938         2.058404082    
H          1.746319715        -2.703705514         2.862954201    
H          3.105665576        -1.814745738       -0.6022012544    
H          2.358138415       -0.4975371834       -0.1801978968    
H         0.7043775006         1.160792802       -0.8792155651    
H         -1.675152668        0.7784146120       -0.2916439714    
H         -1.638462147         2.021336976        -1.269233011    
H         -2.364132864        -1.121737302         1.065732101    
H         -3.273570050        -1.038433110       -0.1891464130    
H          1.726088183        -2.326266305         1.347138441    
H        -0.5996043056        -2.558227753         2.064326039    
H         -1.903678494        -2.717859740         2.941191651    
H          2.064647951         1.855365857       -0.5628435843    
    18
Energy=    -6256.57151825184    
O         -1.042366887         1.497958778       -0.7090771292    
O          2.721494781        -1.405759116        0.1893228469    
O          1.736404807         1.008373199       -0.9012795832    
O         -2.789595815       -0.4403950728        0.4011492546    
O          1.176705548        -2.818826751         2.085953788    
O         -1.634246504        -2.416251725         2.058397441    
H          1.746325547        -2.703723954         2.862962257    
H          3.105678176        -1.814743874       -0.6021981259    
H          2.358144678       -0.4975395670       -0.1801879432    
H         0.7043666707         1.160789732       -0.8792100439    
H         -1.675158797        0.7784233146       -0.2916539720    
H         -1.638471560         2.021345383        -1.269241596    
H         -2.364132533        -1.121728591         1.065729010    
H         -3.273584975        -1.038430523       -0.1891392755    
H          1.726102424        -2.326282951         1.347146220    
H        -0.5995970168        -2.558230082         2.064320289    
H         -1.903674337        -2.717847074         2.941184664    
H          2.064637777         1.855365430       -0.5628537040    
    18
Energy=    -6256.57151821468    
O         -1.042370832         1.497967818       -0.7090737546    
O          2.721495558        -1.405763408        0.1893223045    
O          1.736397910         1.008367063       -0.9012772614    
O         -2.789596062       -0.4403921519        0.4011482234    
O          1.176710850        -2.818825902         2.085960373    
O         -1.634242466        -2.416249188         2.058391864    
H          1.746326315        -2.703718069         2.862971622    
H          3.105678074        -1.814748760       -0.6021995865    
H          2.358146425       -0.4975417279       -0.1801862532    
H         0.7043593227         1.160785694       -0.8792027901    
H         -1.675161781        0.7784305712       -0.2916536481    
H         -1.638473567         2.021349967        -1.269244147    
H         -2.364130697        -1.121725101         1.065727212    
H         -3.273586507        -1.038428229       -0.1891385087    
H          1.726112588        -2.326287934         1.347152838    
H        -0.5995939978        -2.558230234         2.064314805    
H         -1.903674910        -2.717855788         2.941173977    
H          2.064635762         1.855361937       -0.5628628702    
    18
Energy=    -6256.57151818961    