    18
Energy=    -45.0220092398036    
O          1.677288711       -0.3651441466         1.787959727    
O          1.248040166         1.757378519        0.7138403602E-02
O          1.734274127       -0.8602826039        -1.120558836    
O         -1.468997096         1.401840554       -0.1292426063    
O         -1.065357953        -1.117291698        -1.284203980    
O         -1.139128975       -0.8680441205         1.645807356    
H         0.7434508943       -0.6085175810         1.957371156    
H          1.865898957       -0.7202980665        0.9016962037    
H          1.570993994         1.117094259       -0.6549148824    
H          1.457276326         1.307442755        0.8580818293    
H          2.230522771        -1.414325582        -1.728791320    
H         0.7826063845        -1.070441369        -1.265613866    
H         -1.981008742         2.216235478       -0.1345273618    
H        -0.5094606187         1.670671862       -0.8240922221E-01
H         -1.326373140       -0.2094466015       -0.9884938895    
H         -1.775807352        -1.431982909        -1.851539689    
H         -1.401792269        0.1939639604E-01     1.340118520    
H         -1.146418989        -1.397781331        0.8329832260    
    18
Energy=    -45.0206538603096    
O          1.674345812       -0.3582821532         1.787000768    
O          1.246747216         1.758789054        0.6367479977E-03
O          1.736895722       -0.8648373200        -1.119914813    
O         -1.471077659         1.402904542       -0.1231955035    
O         -1.062215584        -1.112068424        -1.286760652    
O         -1.139625715       -0.8746067795         1.643842757    
H         0.7419471123       -0.6069170086         1.956809721    
H          1.865793919       -0.7157555079        0.9022963981    
H          1.572057655         1.120971315       -0.6623826998    
H          1.455830511         1.307897999        0.8512240994    
H          2.229669537        -1.432073324        -1.718894878    
H         0.7838263652        -1.069250366        -1.264424573    
H         -1.981504476         2.218459618       -0.1223086650    
H        -0.5109268412         1.670061636       -0.7907756792E-01
H         -1.325964507       -0.2054393481       -0.9898851716    
H         -1.771492993        -1.428147323        -1.855047503    
H         -1.405114414        0.1377169003E-01     1.343484789    
H         -1.143184464        -1.398974485        0.8274575132    
    18
Energy=    -45.0180765865568    
O          1.670585431       -0.3549445610         1.782778976    
O          1.245448510         1.758481115       -0.6762114904E-02
O          1.742724796       -0.8679819041        -1.120514570    
O         -1.472205436         1.401918347       -0.1131101730    
O         -1.058447223        -1.105117650        -1.284679443    
O         -1.143837985       -0.8812896178         1.645717980    
H         0.7382315991       -0.6035791548         1.952552678    
H          1.863477217       -0.7152977104        0.8993208596    
H          1.570992518         1.120441413       -0.6693276344    
H          1.456429913         1.308247420        0.8438570365    
H          2.236890971        -1.440961096        -1.712424636    
H         0.7900526925        -1.072133924        -1.266508781    
H         -1.985176567         2.215428628       -0.1238689174    
H        -0.5127180236         1.671883993       -0.7679701412E-01
H         -1.319123784       -0.1994182819       -0.9816335862    
H         -1.769384850        -1.415098898        -1.853832584    
H         -1.410972618        0.7917305895E-02     1.349146156    
H         -1.146959965        -1.401991608        0.8269465346    
    18
Energy=    -45.0156833279840    
O          1.667590922       -0.3490277154         1.781202322    
O          1.248352846         1.761302485       -0.1421417437E-01
O          1.742730671       -0.8700733286        -1.118964500    
O         -1.471837433         1.400260452       -0.1071953823    
O         -1.059820184        -1.106154371        -1.287889769    
O         -1.143619050       -0.8837798892         1.646282835    
H         0.7364413419       -0.6007094011         1.953088761    
H          1.859959028       -0.7112339304        0.8985758833    
H          1.575520439         1.121586157       -0.6744508687    
H          1.456249494         1.313723087        0.8383435102    
H          2.237656389        -1.451768030        -1.702152756    
H         0.7896627448        -1.071841408        -1.267340411    
H         -1.986921588         2.212889695       -0.1125090018    
H        -0.5126110100         1.672632815       -0.7388337640E-01
H         -1.317346813       -0.2024632760       -0.9773582976    
H         -1.767907743        -1.403555853        -1.867420572    
H         -1.408905282        0.4617913484E-02     1.345500143    
H         -1.149187578        -1.409901588        0.8312464219    
    18
Energy=    -45.0142411708368    
O          1.665679409       -0.3499466754         1.779016155    
O          1.246857723         1.760936450       -0.1648084906E-01
O          1.743961672       -0.8699093187        -1.119607169    
O         -1.471996544         1.401873812       -0.1066041253    
O         -1.057639432        -1.105436975        -1.286212302    
O         -1.144640342       -0.8836107069         1.647614842    
H         0.7354114277       -0.6036121859         1.952932781    
H          1.856799362       -0.7104883243        0.8953420603    
H          1.573899718         1.121828961       -0.6773756440    
H          1.454233253         1.312293605        0.8356281600    
H          2.241175357        -1.452079223        -1.700042524    
H         0.7917126193        -1.075335281        -1.267308298    
H         -1.987414054         2.214074078       -0.1113508395    
H        -0.5131035634         1.674725891       -0.7144731283E-01
H         -1.315614266       -0.2024197067       -0.9739220145    
H         -1.763988160        -1.401160512        -1.868429474    
H         -1.408190049        0.5082943064E-02     1.346161857    
H         -1.151136933        -1.410313016        0.8329454642    
    18
Energy=    -45.0131090638983    
O          1.664529921       -0.3500363197         1.777542616    
O          1.245902379         1.761238780       -0.1777670300E-01
O          1.744098651       -0.8700437239        -1.119225662    
O         -1.471482484         1.402560331       -0.1050292233    
O         -1.056792136        -1.105164249        -1.284777792    
O         -1.145935711       -0.8836276141         1.648707373    
H         0.7350676375       -0.6058613305         1.952690834    
H          1.854946841       -0.7089567084        0.8928605201    
H          1.572219090         1.122501904       -0.6791989119    
H          1.453623799         1.311416466        0.8337499663    
H          2.243071722        -1.452610642        -1.697783133    
H         0.7924646829        -1.077813185        -1.266814958    
H         -1.987450777         2.214357475       -0.1091559442    
H        -0.5128885434         1.675831837       -0.7166078281E-01
H         -1.314758703       -0.2018781402       -0.9729059111    
H         -1.760840506        -1.399673063        -1.870634585    
H         -1.407223326        0.5328401981E-02     1.345831725    
H         -1.152545339        -1.411066404        0.8344413409    
    18
Energy=    -45.0116706271440    
O          1.663455280       -0.3485657997         1.776744169    
O          1.245925045         1.762437413       -0.1891735139E-01
O          1.743476062       -0.8700135472        -1.119786811    
O         -1.470575767         1.402149845       -0.1030130688    
O         -1.057304974        -1.106050424        -1.283951016    
O         -1.146946472       -0.8833441629         1.649785709    
H         0.7348417432       -0.6063093938         1.953681757    
H          1.853041597       -0.7066391328        0.8914067898    
H          1.571623919         1.124225975       -0.6811212084    
H          1.453714873         1.311266115        0.8321224183    
H          2.243067855        -1.455791389        -1.694174708    
H         0.7920371983        -1.079156001        -1.266729930    
H         -1.987111828         2.213508872       -0.1027751404    
H        -0.5120896074         1.675924642       -0.7310642393E-01
H         -1.315017505       -0.2022726234       -0.9734197250    
H         -1.756657907        -1.397522501        -1.876616502    
H         -1.405405778        0.5599041786E-02     1.343758441    
H         -1.154066538        -1.412943117        0.8369733679    
    18
Energy=    -45.0088582654658    
O          1.663526774       -0.3451663062         1.776716305    
O          1.248699651         1.765199573       -0.1998024538E-01
O          1.741098879       -0.8706217777        -1.118080089    
O         -1.469367904         1.399933173       -0.1002439984    
O         -1.059397560        -1.107249404        -1.284522010    
O         -1.148235058       -0.8843110182         1.649879953    
H         0.7362951358       -0.6055310524         1.956241862    
H          1.851371362       -0.7025814713        0.8908159195    
H          1.570970937         1.125732538       -0.6831031910    
H          1.454713390         1.312837163        0.8310462574    
H          2.241467906        -1.459904779        -1.688932644    
H         0.7894375027        -1.079657876        -1.266155439    
H         -1.986430745         2.211904538       -0.9422065182E-01
H        -0.5104321511         1.674977050       -0.7626932785E-01
H         -1.316538116       -0.2028365741       -0.9762740939    
H         -1.753844941        -1.394578744        -1.885384326    
H         -1.402114858        0.4927842341E-02     1.340270414    
H         -1.155213009        -1.416569059        0.8390560732    
    18
Energy=    -45.0067479565970    
O          1.662969280       -0.3439809113         1.773836451    
O          1.249334806         1.766507956       -0.2072034728E-01
O          1.740404681       -0.8706482707        -1.116763851    
O         -1.468321090         1.398954110       -0.1012870600    
O         -1.059513704        -1.109079123        -1.285174276    
O         -1.148818777       -0.8839237572         1.651978325    
H         0.7351116064       -0.6021403487         1.953863437    
H          1.849244255       -0.7016089885        0.8880211783    
H          1.570360120         1.128536722       -0.6852905199    
H          1.455819248         1.314239893        0.8296724343    
H          2.240200700        -1.464607772        -1.683595696    
H         0.7882315062        -1.078933261        -1.263395114    
H         -1.985540298         2.209801776       -0.8221851425E-01
H        -0.5093426362         1.673675498       -0.7784277557E-01
H         -1.317173356       -0.2041807847       -0.9787559222    
H         -1.747668380        -1.392534095        -1.895064793    
H         -1.399237587        0.5236686087E-02     1.340534998    
H         -1.160053179        -1.418811515        0.8430628155    
    18
Energy=    -45.0041466252491    
O          1.662948560       -0.3440822353         1.771661871    
O          1.249092828         1.767493277       -0.2136222496E-01
O          1.740227835       -0.8707497689        -1.115491759    
O         -1.467553439         1.397866423       -0.1028755239    
O         -1.058709235        -1.109586160        -1.285945064    
O         -1.148901494       -0.8837335015         1.653439732    
H         0.7345284473       -0.5993534808         1.952097070    
H          1.847056460       -0.7016188553        0.8852817005    
H          1.569639211         1.130108189       -0.6867892999    
H          1.456445625         1.314722315        0.8285639793    
H          2.239713005        -1.467172201        -1.680147467    
H         0.7878887070        -1.078558176        -1.261640108    
H         -1.984887610         2.208573611       -0.7440438787E-01
H        -0.5086114125         1.673576389       -0.7858183832E-01
H         -1.317754423       -0.2052165123       -0.9795788533    
H         -1.742793569        -1.391687096        -1.900931925    
H         -1.397831243        0.5727344204E-02     1.342129341    
H         -1.164491058        -1.419805747        0.8454355242    
    18
Energy=    -45.0020397080385    
O          1.662593047       -0.3447080170         1.770093975    
O          1.247777289         1.767635246       -0.2171261978E-01
O          1.740465226       -0.8705946191        -1.115258921    
O         -1.466756028         1.397724574       -0.1045042347    
O         -1.057741209        -1.109841003        -1.286383223    
O         -1.148444498       -0.8833294052         1.654764395    
H         0.7333637357       -0.5971194964         1.950133242    
H          1.845698256       -0.7021919317        0.8833206752    
H          1.569282976         1.131383216       -0.6876523903    
H          1.456781058         1.314672393        0.8277768692    
H          2.239420040        -1.468843118        -1.678150026    
H         0.7881382176        -1.078319361        -1.260521136    
H         -1.984489873         2.207762221       -0.6939000942E-01
H        -0.5080160607         1.673689274       -0.7852526664E-01
H         -1.318059006       -0.2059863945       -0.9795569741    
H         -1.739178031        -1.391499560        -1.904378506    
H         -1.397117384        0.6184327527E-02     1.343541027    
H         -1.167710558        -1.420114532        0.8472638930    
    18
Energy=    -45.0005664268861    
O          1.662195928       -0.3455609808         1.769007479    
O          1.246530568         1.767531870       -0.2192011147E-01
O          1.741059465       -0.8704646788        -1.115532586    
O         -1.466402891         1.397833477       -0.1053327661    
O         -1.056738529        -1.109870830        -1.286189839    
O         -1.148321190       -0.8826927755         1.655805424    
H         0.7325191860       -0.5964515037         1.948638757    
H          1.845026460       -0.7029780902        0.8818509797    
H          1.569170358         1.132118516       -0.6879786505    
H          1.456844310         1.314203419        0.8272327873    
H          2.239662502        -1.469451216        -1.677559518    
H         0.7888607333        -1.078301237        -1.260019124    
H         -1.984586702         2.207548886       -0.6714692103E-01
H        -0.5079131456         1.673950026       -0.7846111939E-01
H         -1.317928178       -0.2063230162       -0.9790585984    
H         -1.736807046        -1.391752854        -1.905607804    
H         -1.397474829        0.6810648610E-02     1.344771501    
H         -1.169689803        -1.419645845        0.8483608774    
    18
Energy=    -44.9984139091578    
O          1.661426969       -0.3451548190         1.768311619    
O          1.246489079         1.768462394       -0.2250236696E-01
O          1.741218576       -0.8702938462        -1.116696141    
O         -1.466032243         1.397117730       -0.1058506730    
O         -1.056798653        -1.110721906        -1.286657083    
O         -1.147860057       -0.8811497337         1.656939238    
H         0.7315639548       -0.5958709129         1.947033227    
H          1.845424643       -0.7032766202        0.8810985685    
H          1.570890100         1.133595252       -0.6877522557    
H          1.457352960         1.314720241        0.8266589276    
H          2.238304687        -1.471905214        -1.676029277    
H         0.7890198217        -1.077554051        -1.259192373    
H         -1.984699603         2.206293436       -0.6192230018E-01
H        -0.5078445978         1.673397301       -0.7888230482E-01
H         -1.318432382       -0.2073798626       -0.9794265914    
H         -1.734111035        -1.391636418        -1.909536017    
H         -1.398477986        0.7551788085E-02     1.344559448    
H         -1.171427038        -1.419690943        0.8507071219    
    18
Energy=    -44.9958322602340    
O          1.662548009       -0.3420932643         1.767552289    
O          1.247880762         1.770249607       -0.2344191999E-01
O          1.740371701       -0.8702367751        -1.116292782    
O         -1.465748868         1.395559877       -0.1069204092    
O         -1.057522670        -1.112394145        -1.289197399    
O         -1.149280309       -0.8806316672         1.657804490    
H         0.7335095843       -0.5946830822         1.949949400    
H          1.844842226       -0.7025842123        0.8810818305    
H          1.574846263         1.134638340       -0.6874242048    
H          1.459791191         1.316867832        0.8257851765    
H          2.235810052        -1.476067900        -1.673181780    
H         0.7872638519        -1.075630935        -1.260009433    
H         -1.985293516         2.203408246       -0.5281444314E-01
H        -0.5081024413         1.671830466       -0.8034526585E-01
H         -1.320543874       -0.2095622571       -0.9802469796    
H         -1.730918706        -1.390749190        -1.917103921    
H         -1.399152409        0.8241002169E-02     1.343796912    
H         -1.174293649        -1.419658129        0.8518692074    
    18
Energy=    -44.9916145599838    
O          1.662364298       -0.3389682070         1.767146810    
O          1.250782721         1.772476101       -0.2441090376E-01
O          1.739887852       -0.8697432181        -1.118166606    
O         -1.466476880         1.393518683       -0.1068978736    
O         -1.059168908        -1.114817814        -1.290669155    
O         -1.149902413       -0.8781898421         1.658610726    
H         0.7346158647       -0.5949163413         1.951466308    
H          1.845549318       -0.7022927103        0.8819482245    
H          1.579826528         1.136317392       -0.6867077834    
H          1.461484122         1.319203450        0.8253127757    
H          2.232771811        -1.481073748        -1.671021805    
H         0.7862597627        -1.073468234        -1.259965566    
H         -1.986006159         2.200664717       -0.4361949598E-01
H        -0.5089707029         1.669640322       -0.8189467073E-01
H         -1.321845039       -0.2117775179       -0.9820006086    
H         -1.728154850        -1.389808814        -1.924725981    
H         -1.401341282        0.9374017972E-02     1.341966780    
H         -1.175668847        -1.419634422        0.8544895919    
    18
Energy=    -44.9888082059803    
O          1.662294291       -0.3367311023         1.766927502    
O          1.253433348         1.773912609       -0.2481860052E-01
O          1.739270869       -0.8696007749        -1.118643089    
O         -1.467113479         1.392239085       -0.1068162334    
O         -1.060397124        -1.116226051        -1.291663126    
O         -1.150193906       -0.8771113596         1.658686216    
H         0.7354333009       -0.5950947658         1.952391118    
H          1.846226858       -0.7018564736        0.8827761210    
H          1.582304076         1.136999547       -0.6864366085    
H          1.462345481         1.320857969        0.8253486501    
H          2.230959151        -1.483735676        -1.669667899    
H         0.7852871455        -1.072163255        -1.259676946    
H         -1.986344607         2.199261805       -0.3879973146E-01
H        -0.5093960317         1.668107152       -0.8276345328E-01
H         -1.322632084       -0.2129719449       -0.9834751077    
H         -1.727380782        -1.388960620        -1.928896993    
H         -1.402111232        0.9679882975E-02     1.340643951    
H         -1.175978078        -1.420102212        0.8557449971    
    18
Energy=    -44.9848420725873    
O          1.662444283       -0.3335829828         1.767157892    
O          1.257738053         1.775662587       -0.2513618270E-01
O          1.737446281       -0.8698183237        -1.117688000    
O         -1.467552627         1.390481133       -0.1068423961    
O         -1.062496558        -1.117595510        -1.293547764    
O         -1.149985359       -0.8769043234         1.657952768    
H         0.7364230126       -0.5946532595         1.952955118    
H          1.847590459       -0.7003183904        0.8843522885    
H          1.584325955         1.137474587       -0.6866938272    
H          1.463118134         1.323861219        0.8260895993    
H          2.228442907        -1.486486932        -1.667305218    
H         0.7830083257        -1.070725914        -1.258377140    
H         -1.986224129         2.197682083       -0.3380817449E-01
H        -0.5090717472         1.666130465       -0.8351707652E-01
H         -1.324031066       -0.2141909940       -0.9862266191    
H         -1.728231739        -1.387333965        -1.933761435    
H         -1.401492973        0.9013515125E-02     1.338417994    
H         -1.175444015        -1.422191180        0.8568389425    
    18
Energy=    -44.9747272973864    
O          1.665971719       -0.3330795581         1.774469794    
O          1.258309360         1.776661377       -0.2750244301E-01
O          1.732618947       -0.8705199547        -1.119123682    
O         -1.463337926         1.386410968       -0.1046832661    
O         -1.068229315        -1.119721330        -1.298510569    
O         -1.152826999       -0.8766761916         1.657045433    
H         0.7385197926       -0.5903108490         1.955733082    
H          1.850846952       -0.6923355921        0.8890452193    
H          1.593783501         1.141791903       -0.6877530919    
H          1.463816917         1.332613738        0.8270960741    
H          2.221354080        -1.494710285        -1.662841811    
H         0.7773938871        -1.068797361        -1.258555294    
H         -1.984904868         2.190808281       -0.2244967700E-01
H        -0.5051816274         1.665449098       -0.8520947035E-01
H         -1.330526270       -0.2174896428       -0.9905246493    
H         -1.729164757        -1.384738007        -1.945671363    
H         -1.400664635        0.7951870046E-02     1.330764472    
H         -1.171771561        -1.426804649        0.8595320094    
    18
Energy=    -44.9705322346823    
O          1.666914799       -0.3336175130         1.776752514    
O          1.256884357         1.776731876       -0.2825605575E-01
O          1.731657956       -0.8705308757        -1.120293155    
O         -1.461850945         1.385565160       -0.1039542466    
O         -1.069667082        -1.120144156        -1.299567222    
O         -1.153758432       -0.8764329374         1.657137994    
H         0.7388502945       -0.5890227166         1.956688325    
H          1.851437594       -0.6903383389        0.8901856907    
H          1.596587379         1.143111392       -0.6875261615    
H          1.464091622         1.334280850        0.8268216924    
H          2.219654439        -1.496918190        -1.662097568    
H         0.7763676296        -1.068467573        -1.259163830    
H         -1.984520777         2.188993643       -0.1980368266E-01
H        -0.5041378408         1.665738555       -0.8558406866E-01
H         -1.332078797       -0.2182195422       -0.9909581462    
H         -1.728949359        -1.384544480        -1.948519590    
H         -1.400673394        0.7842919767E-02     1.328771445    
H         -1.170802247        -1.427524257        0.8602268334    
    18
Energy=    -44.9456659429523    
O          1.666214658       -0.3294641214         1.786976627    
O          1.259805301         1.781531385       -0.2538291199E-01
O          1.729762416       -0.8698616759        -1.131755270    
O         -1.457268031         1.383918877       -0.1016721210    
O         -1.072187372        -1.121902994        -1.302107656    
O         -1.146701926       -0.8742033508         1.656098386    
H         0.7345770345       -0.5767097710         1.962572012    
H          1.850356040       -0.6869186090        0.9000948869    
H          1.597431270         1.147690578       -0.6852199327    
H          1.459323360         1.328812225        0.8254402800    
H          2.210927151        -1.508937536        -1.661165630    
H         0.7736825137        -1.064552077        -1.271638564    
H         -1.980744030         2.185859857       -0.1184642689E-01
H        -0.5006408123         1.665092509       -0.8630246895E-01
H         -1.340730144       -0.2221650072       -0.9860637473    
H         -1.725996231        -1.384877685        -1.957166912    
H         -1.395041005        0.6582898822E-02     1.315954098    
H         -1.166762995        -1.433391689        0.8640461195    
    18
Energy=    -44.9208344617761    
O          1.665003181       -0.3203699773         1.793521059    
O          1.268938512         1.787620655       -0.2319392994E-01
O          1.722732993       -0.8714756586        -1.130676645    
O         -1.452157526         1.381622097       -0.1013099396    
O         -1.077866282        -1.121399127        -1.308611931    
O         -1.138355285       -0.8771268593         1.651584859    
H         0.7314970539       -0.5664886273         1.963539721    
H          1.854280152       -0.6806861530        0.9089319209    
H          1.594205253         1.148934874       -0.6843593869    
H          1.457097622         1.329028328        0.8275682920    
H          2.201971474        -1.516493667        -1.655344378    
H         0.7663355915        -1.061170575        -1.275570080    
H         -1.975538596         2.183239456       -0.6319542283E-02
H        -0.4965479283         1.662575202       -0.8647273030E-01
H         -1.348843319       -0.2253098402       -0.9873197609    
H         -1.730577998        -1.382233762        -1.965135414    
H         -1.384625887        0.8862044906E-03     1.303726188    
H         -1.161541816        -1.444648755        0.8663024662    
    18
Energy=    -44.8895198348918    
O          1.663628487       -0.3018260012         1.799166947    
O          1.278557915         1.792767141       -0.2132859811E-01
O          1.707935018       -0.8760063807        -1.118715042    
O         -1.444236511         1.377639233       -0.1015062529    
O         -1.088335244        -1.120049293        -1.321898344    
O         -1.128822320       -0.8863097747         1.643777182    
H         0.7322078639       -0.5561227626         1.964052417    
H          1.862518664       -0.6692159968        0.9204661521    
H          1.591042993         1.148687271       -0.6822152519    
H          1.461230011         1.336445298        0.8313664107    
H          2.189001170        -1.522214832        -1.642151869    
H         0.7519641083        -1.057269826        -1.274769085    
H         -1.967233241         2.178018778        0.1498487267E-03
H        -0.4882680810         1.660063810       -0.8746078789E-01
H         -1.360433487       -0.2275986215       -0.9935583536    
H         -1.743716812        -1.376947298        -1.977681305    
H         -1.367741964       -0.1002751420E-01     1.287148057    
H         -1.153291375        -1.463529418        0.8660186426    
    18
Energy=    -44.8480273760519    
O          1.658500356       -0.2772927805         1.802575266    
O          1.278052571         1.794594518       -0.1930543645E-01
O          1.691074387       -0.8787144621        -1.106667563    
O         -1.434030386         1.373303369       -0.1017666140    
O         -1.104212998        -1.120393979        -1.335972614    
O         -1.114945469       -0.8969671452         1.634921601    
H         0.7308212346       -0.5470114492         1.961972873    
H          1.871894633       -0.6580754992        0.9342552242    
H          1.590698033         1.147791284       -0.6786219060    
H          1.473395927         1.346882254        0.8356314077    
H          2.175388076        -1.527360082        -1.625938026    
H         0.7346309997        -1.054068377        -1.266875765    
H         -1.957884565         2.174271186        0.7152278986E-02
H        -0.4776803415         1.657476441       -0.8754116696E-01
H         -1.368371908       -0.2280360527        -1.005408299    
H         -1.761465134        -1.370625039        -1.992670107    
H         -1.347635072       -0.2358597146E-01     1.268735557    
H         -1.142223150        -1.485684399        0.8663840572    
    18
Energy=    -44.8258262808946    
O          1.656279724       -0.2674604049         1.804665284    
O          1.273631862         1.792988845       -0.1835198114E-01
O          1.686221448       -0.8778426517        -1.107166147    
O         -1.431190140         1.373121258       -0.1014656457    
O         -1.110142654        -1.121604852        -1.339749389    
O         -1.107601007       -0.9004086055         1.631478325    
H         0.7302364146       -0.5427262179         1.966656606    
H          1.871496199       -0.6562388352        0.9402648980    
H          1.591397422         1.147409785       -0.6771102829    
H          1.479620355         1.348913662        0.8368537435    
H          2.170976790        -1.529560245        -1.621329377    
H         0.7295025421        -1.053195960        -1.266019221    
H         -1.954478723         2.173093888        0.9156353507E-02
H        -0.4738831572         1.656843457       -0.8749685061E-01
H         -1.369806724       -0.2278775416        -1.009393492    
H         -1.767063319        -1.368730592        -1.997693828    
H         -1.340720177       -0.2790610143E-01     1.262315630    
H         -1.138469660        -1.492315073        0.8652461413    
    18
Energy=    -44.8099378169696    