
                           ***********************       
                           *  WELCOME TO SIESTA  *       
                           ***********************       

reinit: Reading from ../OMM_h2o.fdf

reinit: -----------------------------------------------------------------------
reinit: System Name: OMM_h2o
reinit: -----------------------------------------------------------------------
reinit: System Label: OMM_h2o
reinit: -----------------------------------------------------------------------
Siesta Version: siesta-4.1--736
Architecture  : unknown
Compiler flags: gfortran -O2 -fPIC -ftree-vectorize -pg -no-pie
PP flags      : -DFC_HAVE_ABORT
Libraries     : 
SERIAL version

* Running in serial mode
>> Start of run:  15-JAN-2018   9:42:00

initatom: Reading input for the pseudopotentials and atomic orbitals ----------
Species number:   1 Atomic number:    8 Label: O
Species number:   2 Atomic number:    1 Label: H

Ground state valence configuration:   2s02  2p04
Reading pseudopotential information in formatted form from O.psf

Valence configuration for pseudopotential generation:
2s( 2.00) rc: 1.14
2p( 4.00) rc: 1.14
3d( 0.00) rc: 1.14
4f( 0.00) rc: 1.14
Ground state valence configuration:   1s01
Reading pseudopotential information in formatted form from H.psf

Valence configuration for pseudopotential generation:
1s( 1.00) rc: 1.25
2p( 0.00) rc: 1.25
3d( 0.00) rc: 1.25
4f( 0.00) rc: 1.25
remass: Read atomic mass for species    2 as      2.00000
For O, standard SIESTA heuristics set lmxkb to 3
 (one more than the basis l, including polarization orbitals).
Use PS.lmax or PS.KBprojectors blocks to override.
For H, standard SIESTA heuristics set lmxkb to 2
 (one more than the basis l, including polarization orbitals).
Use PS.lmax or PS.KBprojectors blocks to override.

<basis_specs>
===============================================================================
O                    Z=   8    Mass=  16.000        Charge=-0.24233    
Lmxo=2 Lmxkb= 3    BasisType=split      Semic=F
L=0  Nsemic=0  Cnfigmx=2
          n=1  nzeta=2  polorb=0
            splnorm:   0.15000    
               vcte:    23.361    
               rinn:    3.3972    
               qcoe:    0.0000    
               qyuk:    0.0000    
               qwid:   0.10000E-01
                rcs:    4.5077      2.6407    
            lambdas:    1.0000      1.0000    
L=1  Nsemic=0  Cnfigmx=2
          n=1  nzeta=2  polorb=0
            splnorm:   0.15000    
               vcte:    2.7833    
               rinn:    5.1425    
               qcoe:    0.0000    
               qyuk:    0.0000    
               qwid:   0.10000E-01
                rcs:    6.1500      2.5936    
            lambdas:    1.0000      1.0000    
L=2  Nsemic=0  Cnfigmx=3
          n=1  nzeta=1  polorb=0
            splnorm:   0.15000    
               vcte:    63.982    
               rinn:   0.16104    
               qcoe:    0.0000    
               qyuk:    0.0000    
               qwid:   0.10000E-01
                rcs:    3.5440    
            lambdas:    1.0000    
-------------------------------------------------------------------------------
L=0  Nkbl=1  erefs: 0.17977+309
L=1  Nkbl=1  erefs: 0.17977+309
L=2  Nkbl=1  erefs: 0.17977+309
L=3  Nkbl=1  erefs: 0.17977+309
===============================================================================
</basis_specs>

atom: Called for O                     (Z =   8)

read_vps: Pseudopotential generation method:
read_vps: ATM3      Troullier-Martins                       
Total valence charge:    6.00000

xc_check: Exchange-correlation functional:
xc_check: GGA Perdew, Burke & Ernzerhof 1996
xc_check: WARNING: Pseudopotential generated with LDA CA functional
V l=0 = -2*Zval/r beyond r=  1.1278
V l=1 = -2*Zval/r beyond r=  1.1278
V l=2 = -2*Zval/r beyond r=  1.1278
V l=3 = -2*Zval/r beyond r=  1.1138
All V_l potentials equal beyond r=  1.1278
This should be close to max(r_c) in ps generation
All pots = -2*Zval/r beyond r=  1.1278

VLOCAL1: 99.0% of the norm of Vloc inside     34.126 Ry
VLOCAL1: 99.9% of the norm of Vloc inside     77.774 Ry
atom: Maximum radius for 4*pi*r*r*local-pseudopot. charge    1.37759
atom: Maximum radius for r*vlocal+2*Zval:    1.18566
GHOST: No ghost state for L =  0
GHOST: No ghost state for L =  1
GHOST: No ghost state for L =  2
GHOST: No ghost state for L =  3

KBgen: Kleinman-Bylander projectors: 
   l= 0   rc=  1.294105   el= -1.764717   Ekb=  9.120606   kbcos=  0.329038
   l= 1   rc=  1.294105   el= -0.698441   Ekb= -8.119783   kbcos= -0.400859
   l= 2   rc=  1.448233   el=  0.002031   Ekb= -2.039067   kbcos= -0.003490
   l= 3   rc=  1.561052   el=  0.003153   Ekb= -0.799361   kbcos= -0.000345

KBgen: Total number of  Kleinman-Bylander projectors:   16
atom: -------------------------------------------------------------------------

atom: SANKEY-TYPE ORBITALS:
atom: Selected multiple-zeta basis: split     

atom: basis set generated (by rescaling the valence charge)
atom: for an anion of charge  -0.2423

SPLIT: Orbitals with angular momentum L= 0

SPLIT: Basis orbitals for state 2s

   izeta = 1
                 lambda =    1.000000
                     rc =    4.574469
                 energy =   -1.761757
                kinetic =    1.493608
    potential(screened) =   -3.255365
       potential(ionic) =  -11.068524

   izeta = 2
                 rmatch =    2.639108
              splitnorm =    0.146386
                 energy =   -1.557532
                kinetic =    2.331275
    potential(screened) =   -3.888807
       potential(ionic) =  -12.342285

SPLIT: Orbitals with angular momentum L= 1

SPLIT: Basis orbitals for state 2p

   izeta = 1
                 lambda =    1.000000
                     rc =    6.174996
                 energy =   -0.692030
                kinetic =    4.435302
    potential(screened) =   -5.127332
       potential(ionic) =  -12.547375

   izeta = 2
                 rmatch =    2.639108
              splitnorm =    0.202025
                 energy =   -0.455967
                kinetic =    7.214573
    potential(screened) =   -7.670539
       potential(ionic) =  -16.265562

SPLIT: Orbitals with angular momentum L= 2

SPLIT: Basis orbitals for state 3d

   izeta = 1
                 lambda =    1.000000
                     rc =    3.562532
                 energy =    3.652279
                kinetic =    6.499560
    potential(screened) =   -2.847281
       potential(ionic) =  -10.016478
atom: Total number of Sankey-type orbitals: 13

atm_pop: Valence configuration (for local Pseudopot. screening):
 2s( 2.00)                                                            
 2p( 4.00)                                                            
 3d( 0.00)                                                            
Vna: chval, zval:    6.00000   6.00000

Vna:  Cut-off radius for the neutral-atom potential:   6.174996

atom: _________________________________________________________________________

<basis_specs>
===============================================================================
H                    Z=   1    Mass=  2.0000        Charge= 0.46527    
Lmxo=1 Lmxkb= 2    BasisType=split      Semic=F
L=0  Nsemic=0  Cnfigmx=1
          n=1  nzeta=2  polorb=0
            splnorm:   0.15000    
               vcte:    99.931    
               rinn:    2.5993    
               qcoe:    0.0000    
               qyuk:    0.0000    
               qwid:   0.10000E-01
                rcs:    4.2036      1.8446    
            lambdas:    1.0000      1.0000    
L=1  Nsemic=0  Cnfigmx=2
          n=1  nzeta=1  polorb=0
            splnorm:   0.15000    
               vcte:    24.565    
               rinn:    2.2023    
               qcoe:    0.0000    
               qyuk:    0.0000    
               qwid:   0.10000E-01
                rcs:    3.5282    
            lambdas:    1.0000    
-------------------------------------------------------------------------------
L=0  Nkbl=1  erefs: 0.17977+309
L=1  Nkbl=1  erefs: 0.17977+309
L=2  Nkbl=1  erefs: 0.17977+309
===============================================================================
</basis_specs>

atom: Called for H                     (Z =   1)

read_vps: Pseudopotential generation method:
read_vps: ATM3      Troullier-Martins                       
Total valence charge:    1.00000

xc_check: Exchange-correlation functional:
xc_check: GGA Perdew, Burke & Ernzerhof 1996
xc_check: WARNING: Pseudopotential generated with LDA CA functional
V l=0 = -2*Zval/r beyond r=  1.2343
V l=1 = -2*Zval/r beyond r=  1.2189
V l=2 = -2*Zval/r beyond r=  1.2189
All V_l potentials equal beyond r=  1.2343
This should be close to max(r_c) in ps generation
All pots = -2*Zval/r beyond r=  1.2343

VLOCAL1: 99.0% of the norm of Vloc inside     28.493 Ry
VLOCAL1: 99.9% of the norm of Vloc inside     64.935 Ry
atom: Maximum radius for 4*pi*r*r*local-pseudopot. charge    1.45251
atom: Maximum radius for r*vlocal+2*Zval:    1.21892
GHOST: No ghost state for L =  0
GHOST: No ghost state for L =  1
GHOST: No ghost state for L =  2

KBgen: Kleinman-Bylander projectors: 
   l= 0   rc=  1.364359   el= -0.488086   Ekb= -2.002077   kbcos= -0.347561
   l= 1   rc=  1.434438   el=  0.001075   Ekb= -0.501617   kbcos= -0.021754
   l= 2   rc=  1.470814   el=  0.002010   Ekb= -0.190607   kbcos= -0.002284

KBgen: Total number of  Kleinman-Bylander projectors:    9
atom: -------------------------------------------------------------------------

atom: SANKEY-TYPE ORBITALS:
atom: Selected multiple-zeta basis: split     

atom: basis set generated (by rescaling the valence charge)
atom: for a cation of charge   0.4653

SPLIT: Orbitals with angular momentum L= 0

SPLIT: Basis orbitals for state 1s

   izeta = 1
                 lambda =    1.000000
                     rc =    4.260636
                 energy =   -0.875320
                kinetic =    1.357215
    potential(screened) =   -2.232536
       potential(ionic) =   -2.287165

   izeta = 2
                 rmatch =    1.865767
              splitnorm =    0.576232
                 energy =    0.481660
                kinetic =    4.349015
    potential(screened) =   -3.867355
       potential(ionic) =   -3.832494

SPLIT: Orbitals with angular momentum L= 1

SPLIT: Basis orbitals for state 2p

   izeta = 1
                 lambda =    1.000000
                     rc =    3.576223
                 energy =    0.823141
                kinetic =    2.007026
    potential(screened) =   -1.183885
       potential(ionic) =   -1.299268
atom: Total number of Sankey-type orbitals:  5

atm_pop: Valence configuration (for local Pseudopot. screening):
 1s( 1.00)                                                            
 2p( 0.00)                                                            
Vna: chval, zval:    1.00000   1.00000

Vna:  Cut-off radius for the neutral-atom potential:   4.260636

atom: _________________________________________________________________________

prinput: Basis input ----------------------------------------------------------

PAO.BasisType split     

%block ChemicalSpeciesLabel
    1    8 O                       # Species index, atomic number, species label
    2    1 H                       # Species index, atomic number, species label
%endblock ChemicalSpeciesLabel

%block PAO.Basis                 # Define Basis set
O                     3  -0.242            # Label, l-shells, ionic net charge
 n=2   0   2                         # n, l, Nzeta 
   4.574      2.639   
   1.000      1.000   
 n=2   1   2                         # n, l, Nzeta 
   6.175      2.639   
   1.000      1.000   
 n=3   2   1                         # n, l, Nzeta 
   3.563   
   1.000   
H                     2   0.465            # Label, l-shells, ionic net charge
 n=1   0   2                         # n, l, Nzeta 
   4.261      1.866   
   1.000      1.000   
 n=2   1   1                         # n, l, Nzeta 
   3.576   
   1.000   
%endblock PAO.Basis

prinput: ----------------------------------------------------------------------

coor:   Atomic-coordinates input format  =     Cartesian coordinates
coor:                                            (in Bohr units)

siesta: Atomic coordinates (Bohr) and species
siesta:      0.27172   3.11964  -1.74949  1        1
siesta:     -1.36110   3.20498  -2.66996  2        2
siesta:      0.24672   3.92660  -0.07154  2        3
siesta:      8.31165 -11.96330 -11.05793  1        4
siesta:      6.93178 -13.13890 -11.50463  2        5
siesta:      7.71716 -10.95200  -9.61223  2        6
siesta:      7.63490  11.61107   5.41948  1        7
siesta:      6.61216  10.63020   4.22238  2        8
siesta:      8.50839  10.27510   6.29966  2        9
siesta:      1.08830   4.86617   8.06019  1       10
siesta:      1.62142   4.84585   9.85759  2       11
siesta:      2.48979   4.31620   7.00421  2       12
siesta:      9.51435  28.71279  30.54132  1       13
siesta:     10.74195  29.84845  29.79871  2       14
siesta:      9.60069  29.48890  32.18631  2       15
siesta:      2.76543 -11.53468  12.77778  1       16
siesta:      2.63268  -9.94060  13.75052  2       17
siesta:      2.04449 -12.79848  13.93663  2       18
siesta:      0.80810  10.68042  16.61947  1       19
siesta:     -0.79932  10.74460  15.78025  2       20
siesta:      1.18639  12.29620  17.44540  2       21
siesta:     12.61487   4.45579   2.85589  1       22
siesta:     14.15680   5.47145   3.09179  2       23
siesta:     11.36137   5.39241   3.81533  2       24
siesta:     13.44025   3.19269  13.35816  1       25
siesta:     12.73166   1.71789  12.54906  2       26
siesta:     13.28645   4.42044  12.01790  2       27
siesta:      8.06073  13.47252  17.49502  1       28
siesta:      6.95936  14.89948  17.11902  2       29
siesta:      7.89527  13.32184  19.34574  2       30
siesta:     13.85978   7.65443   9.86605  1       31
siesta:     14.75836   8.50638  11.21380  2       32
siesta:     15.16355   6.66099   9.02860  2       33
siesta:      1.44329  14.92395   1.75417  1       34
siesta:      1.55478  14.90515   3.59082  2       35
siesta:     -0.13604  15.84343   1.41984  2       36
siesta:     13.86096  -0.82218   1.24280  1       37
siesta:     13.86338   0.98139   1.68847  2       38
siesta:     13.08602  -1.62793   2.69208  2       39
siesta:      5.35372  36.09093   9.64186  1       40
siesta:      6.15491  34.92835  10.79884  2       41
siesta:      3.93581  36.48455  10.73456  2       42
siesta:     13.71511   8.31849  15.36149  1       43
siesta:     13.98847   6.96565  16.57186  2       44
siesta:     12.53119   7.59992  14.07373  2       45
siesta:     12.83867  15.55749  -3.81565  1       46
siesta:     14.57558  15.11623  -3.53023  2       47
siesta:     12.27397  15.98540  -2.11504  2       48
siesta:     17.46138   7.41207   3.14528  1       49
siesta:     17.33263   8.42208   1.59500  2       50
siesta:     18.96646   7.87878   4.09725  2       51
siesta:      5.50009  17.82279  16.49897  1       52
siesta:      5.86368  19.62625  16.26417  2       53
siesta:      3.70564  17.70906  16.82243  2       54
siesta:      5.19555   8.43056  19.80560  1       55
siesta:      3.88907   8.92584  18.55190  2       56
siesta:      6.66503   8.16690  18.71622  2       57
siesta:     16.67371  17.94974   9.09568  1       58
siesta:     15.01537  18.48098   8.54473  2       59
siesta:     17.81168  19.27939   8.46651  2       60
siesta:      7.73497   5.09320  15.22553  1       61
siesta:      7.50713   5.99213  13.62192  2       62
siesta:      9.51930   4.57678  14.98807  2       63
siesta:      4.53826  19.85943   4.12455  1       64
siesta:      4.50765  18.39783   5.22514  2       65
siesta:      4.80207  19.11425   2.47029  2       66
siesta:     11.12928   1.75134   8.60988  1       67
siesta:     10.21632   3.16921   7.86024  2       68
siesta:     10.84270   0.36700   7.38394  2       69
siesta:     12.73461  13.29511   6.41447  1       70
siesta:     13.60241  11.81134   7.01490  2       71
siesta:     11.28981  12.60974   5.54077  2       72
siesta:     17.50535  12.56281  10.44685  1       73
siesta:     17.32168  14.43317  10.47082  2       74
siesta:     17.73442  12.28509   8.64631  2       75
siesta:      0.01000   0.00000   0.00000  1       76
siesta:      0.00000   0.10000   0.00000  2       77
siesta:      0.00000  -0.10000   0.00000  2       78

siesta: System type = bulk      

initatomlists: Number of atoms, orbitals, and projectors:     78   598   884

siesta: ******************** Simulation parameters ****************************
siesta:
siesta: The following are some of the parameters of the simulation.
siesta: A complete list of the parameters used, including default values,
siesta: can be found in file out.fdf
siesta:
redata: Spin configuration                          = none
redata: Number of spin components                   = 1
redata: Time-Reversal Symmetry                      = T
redata: Spin-spiral                                 = F
redata: Long output                                 =   F
redata: Number of Atomic Species                    =        2
redata: Charge density info will appear in .RHO file
redata: Write Mulliken Pop.                         = NO
redata: Mesh Cutoff                                 =   150.0000 Ry
redata: Net charge of the system                    =     0.0000 |e|
redata: Min. number of SCF Iter                     =        0
redata: Max. number of SCF Iter                     =       50
redata: SCF mix quantity                            = Hamiltonian
redata: Mix DM or H after convergence               =   F
redata: Recompute H after scf cycle                 =   F
redata: Mix DM in first SCF step                    =   T
redata: Write Pulay info on disk                    =   F
redata: New DM Mixing Weight                        =     0.3000
redata: New DM Occupancy tolerance                  = 0.000000000001
redata: No kicks to SCF
redata: DM Mixing Weight for Kicks                  =     0.5000
redata: Require Harris convergence for SCF          =   F
redata: Harris energy tolerance for SCF             =     0.000100 eV
redata: Require DM convergence for SCF              =   T
redata: DM tolerance for SCF                        =     0.0001
redata: Require EDM convergence for SCF             =   F
redata: EDM tolerance for SCF                       =     0.001000 eV
redata: Require H convergence for SCF               =   T
redata: Hamiltonian tolerance for SCF               =     0.001000 eV
redata: Require (free) Energy convergence for SCF   =   F
redata: (free) Energy tolerance for SCF             =     0.000100 eV
redata: Using Saved Data (generic)                  =   F
redata: Use continuation files for DM               =   F
redata: Neglect nonoverlap interactions             =   F
redata: Method of Calculation                       = Orbital Minimization Method
redata: Fix the spin of the system                  =   F
redata: Dynamics option                             = Verlet MD run
redata: Initial MD time step                        =        1
redata:   Final MD time step                        =        2
redata: Length of MD time step                      =     0.5000 fs
redata: Initial Temperature of MD run               =     0.0000 K
redata: Perform a MD quench                         =   F
mix.SCF: Pulay mixing                            = Pulay
mix.SCF:    Variant                              = stable
mix.SCF:    History steps                        = 3
mix.SCF:    Linear mixing weight                 =     0.300000
mix.SCF:    Mixing weight                        =     0.300000
mix.SCF:    SVD condition                        = 0.1000E-07
redata: ***********************************************************************

%block SCF.Mixers
  Pulay
%endblock SCF.Mixers

%block SCF.Mixer.Pulay
  # Mixing method
  method pulay
  variant stable

  # Mixing options
  weight 0.3000
  weight.linear 0.3000
  history 3
%endblock SCF.Mixer.Pulay

Size of DM history Fstack: 1
Total number of electrons:   208.000000
Total ionic charge:   208.000000
 Kpoints in:            1 . Kpoints trimmed:            1

siesta: k-grid: Number of k-points =     1
siesta: k-grid: Cutoff (effective) =     4.703 Ang
siesta: k-grid: Supercell and displacements
siesta: k-grid:    1   0   0      0.000
siesta: k-grid:    0   1   0      0.000
siesta: k-grid:    0   0   1      0.000


                     ====================================
                        Begin MD step =      1
                     ====================================

outcell: Unit cell vectors (Ang):
        9.405075    0.000000    0.000000
        0.000000    9.405075    0.000000
        0.000000    0.000000    9.405075

outcell: Cell vector modules (Ang)   :    9.405075    9.405075    9.405075
outcell: Cell angles (23,13,12) (deg):     90.0000     90.0000     90.0000
outcell: Cell volume (Ang**3)        :    831.9300
siesta: WARNING: Atoms    76    78 too close: rij =    0.053182 Ang
siesta: WARNING: Atoms    77    78 too close: rij =    0.105835 Ang
 Folding of H and S is implicitly performed
<dSpData1D:S at geom step 1
  <sparsity:sparsity for geom step 1
    nrows_g=598 nrows=598 sparsity=.4009 nnzs=143354, refcount: 7>
  <dData1D:(new from dSpData1D) n=143354, refcount: 1>
refcount: 1>
new_DM -- step:     1
Initializing Density Matrix...
DM filled with atomic data:
<dSpData2D:DM initialized from atoms
  <sparsity:sparsity for geom step 1
    nrows_g=598 nrows=598 sparsity=.4009 nnzs=143354, refcount: 8>
  <dData2D:DM n=143354 m=1, refcount: 1>
refcount: 1>

No. of atoms with KB's overlaping orbs in proc 0. Max # of overlaps:      78     110
New grid distribution:   1
           1       1:   36    1:   36    1:   36

InitMesh: MESH =    72 x    72 x    72 =      373248
InitMesh: (bp) =    36 x    36 x    36 =       46656
InitMesh: Mesh cutoff (required, used) =   150.000   161.973 Ry
ExtMesh (bp) on 0 =    88 x    88 x    88 =      681472
PhiOnMesh: Number of (b)points on node 0 =                46656
PhiOnMesh: nlist on node 0 =              1578267
+---------------------------------------------+
| OMM (sparse algebra+preconditioning)        |
+---------------------------------------------+
|             E_OMM            E_diff         |
|     1     1 -6.6157325E-003  2.3646747E+000 |
|     1     2 -9.1085809E+000  1.9970968E+000 |
|     1     3 -9.1119844E+000  3.7359374E-004 |
|     1     4 -3.7661989E+001  1.2207646E+000 |
|     1     5 -4.8864996E+001  2.5894829E-001 |
|     1     6 -7.5615726E+001  4.2979715E-001 |
|     1     7 -9.6820336E+001  2.4594172E-001 |
|     1     8 -1.0941188E+002  1.2211031E-001 |
|     1     9 -1.1984157E+002  9.0988300E-002 |
|     1    10 -1.3244870E+002  9.9941470E-002 |
|     1    11 -1.4023465E+002  5.7106195E-002 |
|     1    12 -1.4400175E+002  2.6506834E-002 |
|     1    13 -1.4841175E+002  3.0162774E-002 |
|     1    14 -1.5123315E+002  1.8831578E-002 |
|     1    15 -1.5235286E+002  7.3765494E-003 |
|     1    16 -1.5350241E+002  7.5169875E-003 |
|     1    17 -1.5411574E+002  3.9875868E-003 |
|     1    18 -1.5432549E+002  1.3600871E-003 |
|     1    19 -1.5446259E+002  8.8795358E-004 |
|     1    20 -1.5463749E+002  1.1317107E-003 |
|     1    21 -1.5496239E+002  2.0988501E-003 |
|     1    22 -1.5522965E+002  1.7231659E-003 |
|     1    23 -1.5535627E+002  8.1534093E-004 |
|     1    24 -1.5541604E+002  3.8467065E-004 |
|     1    25 -1.5543595E+002  1.2810757E-004 |
|     1    26 -1.5544754E+002  7.4575967E-005 |
|     1    27 -1.5545067E+002  2.0112931E-005 |
|     1    28 -1.5545164E+002  6.2352040E-006 |
|     1    29 -1.5545205E+002  2.6499674E-006 |
|     1    30 -1.5545224E+002  1.1861305E-006 |
|     1    31 -1.5545231E+002  4.7819041E-007 |
|     1    32 -1.5545234E+002  1.8139405E-007 |
|     1    33 -1.5545235E+002  6.7639902E-008 |
|     1    34 -1.5545235E+002  2.6702829E-008 |
|     1    35 -1.5545235E+002  9.0569471E-009 |
|     1    36 -1.5545235E+002  2.6398454E-009 |
|     1    37 -1.5545236E+002  1.3422230E-009 |
|     1    38 -1.5545236E+002  4.7667266E-010 |
+---------------------------------------------+
 wefui
| minim: icg             =    38              |
| minim: 2*Tr[(2*I-S)*S] =   208.0000000      |
+---------------------------------------------+

siesta: Program's energy decomposition (eV):
siesta: Ebs     =     -1448.858239
siesta: Eions   =     21212.216449
siesta: Ena     =      7943.533510
siesta: Ekin    =     11251.579018
siesta: Enl     =     -2206.844438
siesta: Eso     =         0.000000
siesta: Eldau   =         0.000000
siesta: DEna    =     -1885.463241
siesta: DUscf   =       365.631193
siesta: DUext   =         0.000000
siesta: Exc     =     -3345.977366
siesta: eta*DQ  =         0.000000
siesta: Emadel  =         0.000000
siesta: Emeta   =         0.000000
siesta: Emolmec =         0.000000
siesta: Ekinion =         0.000000
siesta: Eharris =     -8778.496473
siesta: Etot    =     -9089.757774
siesta: FreeEng =     -9089.757774

siesta: iscf =    1
Eharris(eV) =      -8778.4965  E_KS(eV) =      -9089.7578  dDmax =   1.945185

timer: Routine,Calls,Time,% = IterSCF        1       4.572  56.14
+---------------------------------------------+
| OMM (sparse algebra+preconditioning)        |
+---------------------------------------------+
|             E_OMM            E_diff         |
|     1     1 -1.2801538E+002  7.3097369E-003 |
|     1     2 -1.2819945E+002  1.4368602E-003 |
|     1     3 -1.2829484E+002  7.4377466E-004 |
|     1     4 -1.2832996E+002  2.7372476E-004 |
|     1     5 -1.2833962E+002  7.5239825E-005 |
|     1     6 -1.2834233E+002  2.1122328E-005 |
|     1     7 -1.2834316E+002  6.4913732E-006 |
|     1     8 -1.2834357E+002  3.2001961E-006 |
|     1     9 -1.2834371E+002  1.1060994E-006 |
|     1    10 -1.2834379E+002  5.9497068E-007 |
|     1    11 -1.2834382E+002  2.3329895E-007 |
|     1    12 -1.2834383E+002  5.9583123E-008 |
|     1    13 -1.2834383E+002  2.0197647E-008 |
|     1    14 -1.2834383E+002  1.0562011E-008 |
|     1    15 -1.2834383E+002  4.3813585E-009 |
|     1    16 -1.2834383E+002  1.5617177E-009 |
|     1    17 -1.2834383E+002  7.0648272E-010 |
+---------------------------------------------+
 wefui
| minim: icg             =    17              |
| minim: 2*Tr[(2*I-S)*S] =   208.0000000      |
+---------------------------------------------+

siesta: iscf =    2
Eharris(eV) =      -9335.5828  E_KS(eV) =      -9237.9764  dDmax =   0.521245

+---------------------------------------------+
| OMM (sparse algebra+preconditioning)        |
+---------------------------------------------+
|             E_OMM            E_diff         |
|     1     1 -1.1804386E+002  1.5004628E-003 |
|     1     2 -1.1808451E+002  3.4429283E-004 |
|     1     3 -1.1810454E+002  1.6960933E-004 |
|     1     4 -1.1811075E+002  5.2624713E-005 |
|     1     5 -1.1811281E+002  1.7451527E-005 |
|     1     6 -1.1811334E+002  4.4904060E-006 |
|     1     7 -1.1811356E+002  1.8478442E-006 |
|     1     8 -1.1811364E+002  6.4010974E-007 |
|     1     9 -1.1811367E+002  2.5672652E-007 |
|     1    10 -1.1811368E+002  8.2528359E-008 |
|     1    11 -1.1811368E+002  3.9186197E-008 |
|     1    12 -1.1811368E+002  1.5963054E-008 |
|     1    13 -1.1811368E+002  5.1667411E-009 |
|     1    14 -1.1811368E+002  2.2465208E-009 |
|     1    15 -1.1811368E+002  9.7376535E-010 |
+---------------------------------------------+
 wefui
| minim: icg             =    15              |
| minim: 2*Tr[(2*I-S)*S] =   208.0000000      |
+---------------------------------------------+

siesta: iscf =    3
Eharris(eV) =      -9258.3512  E_KS(eV) =      -9252.8514  dDmax =   0.245070

+---------------------------------------------+
| OMM (sparse algebra+preconditioning)        |
+---------------------------------------------+
|             E_OMM            E_diff         |
|     1     1 -1.1919503E+002  6.2746848E-005 |
|     1     2 -1.1919656E+002  1.2795619E-005 |
|     1     3 -1.1919728E+002  6.0387600E-006 |
|     1     4 -1.1919747E+002  1.6282551E-006 |
|     1     5 -1.1919754E+002  6.1547762E-007 |
|     1     6 -1.1919756E+002  1.6962435E-007 |
|     1     7 -1.1919757E+002  6.1394314E-008 |
|     1     8 -1.1919757E+002  1.9884963E-008 |
|     1     9 -1.1919758E+002  8.0490373E-009 |
|     1    10 -1.1919758E+002  2.7458448E-009 |
|     1    11 -1.1919758E+002  7.8728771E-010 |
+---------------------------------------------+
 wefui
| minim: icg             =    11              |
| minim: 2*Tr[(2*I-S)*S] =   208.0000000      |
+---------------------------------------------+

siesta: iscf =    4
Eharris(eV) =      -9253.6217  E_KS(eV) =      -9253.4137  dDmax =   0.069039

+---------------------------------------------+
| OMM (sparse algebra+preconditioning)        |
+---------------------------------------------+
|             E_OMM            E_diff         |
|     1     1 -1.1886909E+002  2.6021663E-006 |
|     1     2 -1.1886915E+002  5.3539970E-007 |
|     1     3 -1.1886918E+002  2.2487285E-007 |
|     1     4 -1.1886919E+002  7.4730165E-008 |
|     1     5 -1.1886919E+002  2.2191607E-008 |
|     1     6 -1.1886919E+002  7.1367812E-009 |
|     1     7 -1.1886919E+002  2.5460258E-009 |
|     1     8 -1.1886919E+002  1.0913604E-009 |
|     1     9 -1.1886919E+002  4.1017119E-010 |
+---------------------------------------------+
 wefui
| minim: icg             =     9              |
| minim: 2*Tr[(2*I-S)*S] =   208.0000000      |
+---------------------------------------------+

siesta: iscf =    5
Eharris(eV) =      -9253.4693  E_KS(eV) =      -9253.4488  dDmax =   0.008328

+---------------------------------------------+
| OMM (sparse algebra+preconditioning)        |
+---------------------------------------------+
|             E_OMM            E_diff         |
|     1     1 -1.1887924E+002  1.8523788E-007 |
|     1     2 -1.1887924E+002  2.1593112E-008 |
|     1     3 -1.1887924E+002  6.6868281E-009 |
|     1     4 -1.1887924E+002  2.7797463E-009 |
|     1     5 -1.1887924E+002  1.3113457E-009 |
|     1     6 -1.1887924E+002  5.7423359E-010 |
+---------------------------------------------+
 wefui
| minim: icg             =     6              |
| minim: 2*Tr[(2*I-S)*S] =   208.0000000      |
+---------------------------------------------+

siesta: iscf =    6
Eharris(eV) =      -9253.4565  E_KS(eV) =      -9253.4527  dDmax =   0.004189

+---------------------------------------------+
| OMM (sparse algebra+preconditioning)        |
+---------------------------------------------+
|             E_OMM            E_diff         |
|     1     1 -1.1890164E+002  5.1954631E-007 |
|     1     2 -1.1890164E+002  5.3262329E-008 |
|     1     3 -1.1890164E+002  1.5954561E-008 |
|     1     4 -1.1890164E+002  7.1630541E-009 |
|     1     5 -1.1890165E+002  3.2666784E-009 |
|     1     6 -1.1890165E+002  1.4206047E-009 |
|     1     7 -1.1890165E+002  4.5363516E-010 |
+---------------------------------------------+
 wefui
| minim: icg             =     7              |
| minim: 2*Tr[(2*I-S)*S] =   208.0000000      |
+---------------------------------------------+

siesta: iscf =    7
Eharris(eV) =      -9253.4582  E_KS(eV) =      -9253.4556  dDmax =   0.007920

+---------------------------------------------+
| OMM (sparse algebra+preconditioning)        |
+---------------------------------------------+
|             E_OMM            E_diff         |
|     1     1 -1.1889883E+002  9.4807083E-009 |
|     1     2 -1.1889883E+002  9.3041876E-010 |
+---------------------------------------------+
 wefui
| minim: icg             =     2              |
| minim: 2*Tr[(2*I-S)*S] =   208.0000000      |
+---------------------------------------------+

siesta: iscf =    8
Eharris(eV) =      -9253.4558  E_KS(eV) =      -9253.4557  dDmax =   0.001140

+---------------------------------------------+
| OMM (sparse algebra+preconditioning)        |
+---------------------------------------------+
|             E_OMM            E_diff         |
|     1     1 -1.1889274E+002  3.1917047E-009 |
|     1     2 -1.1889274E+002  9.4552681E-010 |
+---------------------------------------------+
 wefui
| minim: icg             =     2              |
| minim: 2*Tr[(2*I-S)*S] =   208.0000000      |
+---------------------------------------------+

siesta: iscf =    9
Eharris(eV) =      -9253.4558  E_KS(eV) =      -9253.4557  dDmax =   0.000665

+---------------------------------------------+
| OMM (sparse algebra+preconditioning)        |
+---------------------------------------------+
|             E_OMM            E_diff         |
|     1     1 -1.1888729E+002  4.7968184E-010 |
+---------------------------------------------+
 wefui
| minim: icg             =     1              |
| minim: 2*Tr[(2*I-S)*S] =   208.0000000      |
+---------------------------------------------+

siesta: iscf =   10
Eharris(eV) =      -9253.4557  E_KS(eV) =      -9253.4557  dDmax =   0.000305

+---------------------------------------------+
| OMM (sparse algebra+preconditioning)        |
+---------------------------------------------+
|             E_OMM            E_diff         |
|     1     1 -1.1888657E+002  2.2030855E-010 |
+---------------------------------------------+
 wefui
| minim: icg             =     1              |
| minim: 2*Tr[(2*I-S)*S] =   208.0000000      |
+---------------------------------------------+

siesta: iscf =   11
Eharris(eV) =      -9253.4557  E_KS(eV) =      -9253.4557  dDmax =   0.000194

+---------------------------------------------+
| OMM (sparse algebra+preconditioning)        |
+---------------------------------------------+
|             E_OMM            E_diff         |
|     1     1 -1.1888684E+002  1.6200985E-010 |
+---------------------------------------------+
 wefui
| minim: icg             =     1              |
| minim: 2*Tr[(2*I-S)*S] =   208.0000000      |
+---------------------------------------------+

siesta: iscf =   12
Eharris(eV) =      -9253.4557  E_KS(eV) =      -9253.4557  dDmax =   0.000079


SCF Convergence by DM+H criterion
max |DM_out - DM_in|         :     0.0000789249
max |H_out - H_in|      (eV) :     0.0001924304
SCF cycle converged after 12 iterations
 wefui

Using DM_out to compute the final energy and forces
No. of atoms with KB's overlaping orbs in proc 0. Max # of overlaps:      78     110

siesta: E_KS(eV) =            -9253.4557

siesta: E_KS - E_eggbox =     -9253.4557

siesta: Atomic forces (eV/Ang):
----------------------------------------
   Tot    0.095111    0.180385   -0.063828
----------------------------------------
   Max31661.168835
   Res 2967.053660    sqrt( Sum f_i^2 / 3N )
----------------------------------------
   Max31661.168835    constrained

Stress-tensor-Voigt (kbar):      -64.35    -6473.76        3.82        4.77       25.94        0.68
(Free)E + p*V (eV/cell)    -8122.4920
Target enthalpy (eV/cell)    -9253.4557

siesta: Stress tensor (static) (eV/Ang**3):
        -0.040164    0.002978    0.000423
         0.002979   -4.040557    0.016192
         0.000423    0.016192    0.002384

siesta: Pressure (static):       2178.09580668  kBar

siesta: Stress tensor (total) (eV/Ang**3):
        -0.040164    0.002978    0.000423
         0.002979   -4.040557    0.016192
         0.000423    0.016192    0.002384

siesta: Pressure (total):       2178.09580668  kBar

siesta: Temp_ion =       0.000 K

                     ====================================
                        Begin MD step =      2
                     ====================================

outcell: Unit cell vectors (Ang):
        9.405075    0.000000    0.000000
        0.000000    9.405075    0.000000
        0.000000    0.000000    9.405075

outcell: Cell vector modules (Ang)   :    9.405075    9.405075    9.405075
outcell: Cell angles (23,13,12) (deg):     90.0000     90.0000     90.0000
outcell: Cell volume (Ang**3)        :    831.9300
siesta: WARNING: Atoms    77    78 too close: rij =    0.393375 Ang
 Folding of H and S is implicitly performed
<dSpData1D:S at geom step 2
  <sparsity:sparsity for geom step 2
    nrows_g=598 nrows=598 sparsity=.4023 nnzs=143852, refcount: 7>
  <dData1D:(new from dSpData1D) n=143852, refcount: 1>
refcount: 1>
new_DM -- step:     2
Re-using DM from previous geometries...
Number of DMs in history: 1
 DM extrapolation coefficients: 
1   1.00000
New DM after history re-use:
<dSpData2D:SpM extrapolated using coords
  <sparsity:sparsity for geom step 2
    nrows_g=598 nrows=598 sparsity=.4023 nnzs=143852, refcount: 8>
  <dData2D:(temp array for extrapolation) n=143852 m=1, refcount: 1>
refcount: 1>
Note: For starting DM, Qtot, Tr[D*S] =        208.00000000        209.54546914
No. of atoms with KB's overlaping orbs in proc 0. Max # of overlaps:      78     107
New grid distribution:   1
           1       1:   36    1:   36    1:   36

InitMesh: MESH =    72 x    72 x    72 =      373248
InitMesh: (bp) =    36 x    36 x    36 =       46656
InitMesh: Mesh cutoff (required, used) =   150.000   161.973 Ry
ExtMesh (bp) on 0 =    88 x    88 x    88 =      681472
PhiOnMesh: Number of (b)points on node 0 =                46656
PhiOnMesh: nlist on node 0 =              1578306
+---------------------------------------------+
| OMM (sparse algebra+preconditioning)        |
+---------------------------------------------+
|             E_OMM            E_diff         |
| WARNING: Rescaling coefficients!            |
|     1     1 -3.3420127E+002  1.0000000E+000 |
| WARNING: Rescaling coefficients!            |
|     2     1 -1.0026038E+003  1.0000000E+000 |
|     3     1 -8.4256801E+001  1.6899076E+000 |
| WARNING: Rescaling coefficients!            |
|     3     2 -2.5277040E+002  1.0000000E+000 |
|     4     1 -3.8862877E+001  1.4669624E+000 |
|     4     2 -6.9328746E+001  5.6318351E-001 |
| WARNING: Rescaling coefficients!            |
|     4     3 -2.0798624E+002  1.0000000E+000 |
|     5     1 -4.2362432E+001  1.3231451E+000 |
|     5     2 -7.9542911E+001  6.0998933E-001 |
| WARNING: Rescaling coefficients!            |
|     5     3 -2.3862873E+002  1.0000000E+000 |
|     6     1 -4.7602080E+001  1.3347735E+000 |
|     6     2 -1.1825262E+002  8.5195705E-001 |
| WARNING: Rescaling coefficients!            |
|     6     3 -3.5475786E+002  1.0000000E+000 |
| WARNING: Rescaling coefficients!            |
|     7     1 -1.0642736E+003  1.0000000E+000 |
|     8     1 -1.5026547E+001  1.9443100E+000 |
|     8     2 -4.8928224E+001  1.0601766E+000 |
|     8     3 -5.6706535E+001  1.4726802E-001 |
|     8     4 -8.2184315E+001  3.6687485E-001 |
|     8     5 -9.5892882E+001  1.5396207E-001 |
|     8     6 -1.0453388E+002  8.6226028E-002 |
|     8     7 -1.1003652E+002  5.1289774E-002 |
|     8     8 -1.1427044E+002  3.7751137E-002 |
|     8     9 -1.1623922E+002  1.7082018E-002 |
|     8    10 -1.1707388E+002  7.1548473E-003 |
|     8    11 -1.1759829E+002  4.4692794E-003 |
|     8    12 -1.1796648E+002  3.1259892E-003 |
|     8    13 -1.1820085E+002  1.9848060E-003 |
|     8    14 -1.1840748E+002  1.7465940E-003 |
|     8    15 -1.1852842E+002  1.0208369E-003 |
|     8    16 -1.1857989E+002  4.3420514E-004 |
|     8    17 -1.1861580E+002  3.0275732E-004 |
|     8    18 -1.1865922E+002  3.6599918E-004 |
|     8    19 -1.1872623E+002  5.6455618E-004 |
|     8    20 -1.1879431E+002  5.7322131E-004 |
|     8    21 -1.1887531E+002  6.8169109E-004 |
|     8    22 -1.1891229E+002  3.1100155E-004 |
|     8    23 -1.1893647E+002  2.0333790E-004 |
|     8    24 -1.1895512E+002  1.5674388E-004 |
|     8    25 -1.1897424E+002  1.6074476E-004 |
|     8    26 -1.1899680E+002  1.8957387E-004 |
|     8    27 -1.1902078E+002  2.0152516E-004 |
|     8    28 -1.1903748E+002  1.4032800E-004 |
|     8    29 -1.1904795E+002  8.7937094E-005 |
|     8    30 -1.1905505E+002  5.9635206E-005 |
|     8    31 -1.1905919E+002  3.4765300E-005 |
|     8    32 -1.1906218E+002  2.5080399E-005 |
|     8    33 -1.1906413E+002  1.6401537E-005 |
|     8    34 -1.1906585E+002  1.4422181E-005 |
|     8    35 -1.1906744E+002  1.3394442E-005 |
|     8    36 -1.1906980E+002  1.9795166E-005 |
|     8    37 -1.1907381E+002  3.3656323E-005 |
|     8    38 -1.1908136E+002  6.3475627E-005 |
|     8    39 -1.1909080E+002  7.9269753E-005 |
|     8    40 -1.1911070E+002  1.6706583E-004 |
|     8    41 -1.1912079E+002  8.4670841E-005 |
|     8    42 -1.1912897E+002  6.8696378E-005 |
|     8    43 -1.1913425E+002  4.4322889E-005 |
|     8    44 -1.1913822E+002  3.3318542E-005 |
|     8    45 -1.1914120E+002  2.4992909E-005 |
|     8    46 -1.1914358E+002  1.9989522E-005 |
|     8    47 -1.1914525E+002  1.4028367E-005 |
|     8    48 -1.1914648E+002  1.0325691E-005 |
|     8    49 -1.1914740E+002  7.7068251E-006 |
|     8    50 -1.1914805E+002  5.4953406E-006 |
|     8    51 -1.1914864E+002  4.9419402E-006 |
|     8    52 -1.1914902E+002  3.1449731E-006 |
|     8    53 -1.1914930E+002  2.3858698E-006 |
|     8    54 -1.1914951E+002  1.7505096E-006 |
|     8    55 -1.1914972E+002  1.7402903E-006 |
|     8    56 -1.1914995E+002  1.9818704E-006 |
|     8    57 -1.1915038E+002  3.5812470E-006 |
|     8    58 -1.1915135E+002  8.1563187E-006 |
|     8    59 -1.1915365E+002  1.9310404E-005 |
|     8    60 -1.1915753E+002  3.2561151E-005 |
|     8    61 -1.1916672E+002  7.7121892E-005 |
|     8    62 -1.1917415E+002  6.2297068E-005 |
|     8    63 -1.1918187E+002  6.4771801E-005 |
|     8    64 -1.1918723E+002  4.5044869E-005 |
|     8    65 -1.1919188E+002  3.8947418E-005 |
|     8    66 -1.1919492E+002  2.5517318E-005 |
|     8    67 -1.1919737E+002  2.0533035E-005 |
|     8    68 -1.1919933E+002  1.6491568E-005 |
|     8    69 -1.1920102E+002  1.4142797E-005 |
|     8    70 -1.1920245E+002  1.2052399E-005 |
|     8    71 -1.1920371E+002  1.0514150E-005 |
|     8    72 -1.1920463E+002  7.7299613E-006 |
|     8    73 -1.1920542E+002  6.6600357E-006 |
|     8    74 -1.1920613E+002  5.9662705E-006 |
|     8    75 -1.1920673E+002  5.0368354E-006 |
|     8    76 -1.1920722E+002  4.0460175E-006 |
|     8    77 -1.1920761E+002  3.3374633E-006 |
|     8    78 -1.1920798E+002  3.0471728E-006 |
|     8    79 -1.1920833E+002  2.9341633E-006 |
|     8    80 -1.1920864E+002  2.5836206E-006 |
|     8    81 -1.1920892E+002  2.4207467E-006 |
|     8    82 -1.1920917E+002  2.0626304E-006 |
|     8    83 -1.1920947E+002  2.5385324E-006 |
|     8    84 -1.1920972E+002  2.0467587E-006 |
|     8    85 -1.1920996E+002  1.9988804E-006 |
|     8    86 -1.1921013E+002  1.4673017E-006 |
|     8    87 -1.1921028E+002  1.2818340E-006 |
|     8    88 -1.1921040E+002  1.0025478E-006 |
|     8    89 -1.1921049E+002  7.3300671E-007 |
|     8    90 -1.1921057E+002  6.3914769E-007 |
|     8    91 -1.1921064E+002  6.3209131E-007 |
|     8    92 -1.1921070E+002  5.1388874E-007 |
|     8    93 -1.1921076E+002  4.6741830E-007 |
|     8    94 -1.1921081E+002  3.9297227E-007 |
|     8    95 -1.1921084E+002  3.2122316E-007 |
|     8    96 -1.1921088E+002  2.8496538E-007 |
|     8    97 -1.1921090E+002  2.1164372E-007 |
|     8    98 -1.1921093E+002  2.0520069E-007 |
|     8    99 -1.1921095E+002  1.7328905E-007 |
|     8   100 -1.1921097E+002  1.5019439E-007 |
|     8   101 -1.1921098E+002  1.1816914E-007 |
|     8   102 -1.1921099E+002  9.6373095E-008 |
|     8   103 -1.1921100E+002  8.4245353E-008 |
|     8   104 -1.1921101E+002  6.9860050E-008 |
|     8   105 -1.1921102E+002  5.6778165E-008 |
|     8   106 -1.1921102E+002  4.7462764E-008 |
|     8   107 -1.1921103E+002  4.8605743E-008 |
|     8   108 -1.1921103E+002  3.9674687E-008 |
|     8   109 -1.1921104E+002  3.5762228E-008 |
|     8   110 -1.1921104E+002  2.6972189E-008 |
|     8   111 -1.1921104E+002  2.1865166E-008 |
|     8   112 -1.1921104E+002  1.6185162E-008 |
|     8   113 -1.1921105E+002  1.2974885E-008 |
|     8   114 -1.1921105E+002  1.0543986E-008 |
|     8   115 -1.1921105E+002  9.7881712E-009 |
|     8   116 -1.1921105E+002  9.9408329E-009 |
|     8   117 -1.1921105E+002  7.7367496E-009 |
|     8   118 -1.1921105E+002  6.8677303E-009 |
|     8   119 -1.1921105E+002  5.2865761E-009 |
|     8   120 -1.1921105E+002  4.3173816E-009 |
|     8   121 -1.1921105E+002  3.0800922E-009 |
|     8   122 -1.1921105E+002  2.4223270E-009 |
|     8   123 -1.1921105E+002  2.0651817E-009 |
|     8   124 -1.1921105E+002  1.6845158E-009 |
|     8   125 -1.1921105E+002  1.3475870E-009 |
|     8   126 -1.1921105E+002  9.8732798E-010 |
+---------------------------------------------+
 wefui
| minim: icg             =   140              |
| minim: 2*Tr[(2*I-S)*S] =   207.9999886      |
+---------------------------------------------+

siesta: iscf =    1
Eharris(eV) =     -10679.3584  E_KS(eV) =     -11705.8209  dDmax =   2.087969

+---------------------------------------------+
| OMM (sparse algebra+preconditioning)        |
+---------------------------------------------+
|             E_OMM            E_diff         |
|     1     1 -1.0588576E+002  6.9390035E-002 |
|     1     2 -1.0923165E+002  3.1107596E-002 |
|     1     3 -1.1505759E+002  5.1950262E-002 |
|     1     4 -1.1943901E+002  3.7368742E-002 |
|     1     5 -1.2346678E+002  3.3163191E-002 |
|     1     6 -1.2994202E+002  5.1105101E-002 |
|     1     7 -1.3737537E+002  5.5614404E-002 |
|     1     8 -1.1517764E+004  1.9528533E+000 |
|     1     9 -1.1518267E+004  4.3604037E-005 |
|     1    10 -1.3026194E+002  1.9552692E+000 |
|     1    11 -1.3058816E+002  2.5011859E-003 |
|     1    12 -1.3500498E+002  3.3260004E-002 |
|     1    13 -1.3906986E+002  2.9662557E-002 |
|     1    14 -1.4469077E+002  3.9617268E-002 |
| WARNING: Rescaling coefficients!            |
|     1    15 -4.3407230E+002  1.0000000E+000 |
|     2     1 -9.9300144E+001  1.2553035E+000 |
| WARNING: Rescaling coefficients!            |
|     2     2 -2.9790043E+002  1.0000000E+000 |
|     3     1 -8.4222016E+001  1.1183767E+000 |
| WARNING: Rescaling coefficients!            |
|     3     2 -2.5266605E+002  1.0000000E+000 |
|     4     1 -4.0514605E+003  1.7651872E+000 |
|     4     2 -4.0722409E+003  5.1159932E-003 |
| WARNING: Rescaling coefficients!            |
|     4     3 -1.2216723E+004  1.0000000E+000 |
|     5     1 -1.0858185E+004  1.1775019E-001 |
| WARNING: Rescaling coefficients!            |
|     5     2 -3.2574556E+004  1.0000000E+000 |
|     6     1 -1.7151248E+004  6.2033418E-001 |
| WARNING: Rescaling coefficients!            |
|     6     2 -5.1453744E+004  1.0000000E+000 |
|     7     1 -3.0691572E+004  5.0549862E-001 |
| WARNING: Rescaling coefficients!            |
|     7     2 -9.2074717E+004  1.0000000E+000 |
|     8     1 -1.2469496E+005  3.0096686E-001 |
| WARNING: Rescaling coefficients!            |
|     8     2 -3.7408488E+005  1.0000000E+000 |
|     9     1 -3.9772118E+005  6.1249303E-002 |
| WARNING: Rescaling coefficients!            |
|     9     2 -1.1931635E+006  1.0000000E+000 |
|    10     1 -2.5913840E+006  7.3891026E-001 |
|    10     2 -4.6705012E+007  1.7897303E+000 |
|    10     3 -4.7624353E+007  1.9492151E-002 |
|    10     4 -1.6654417E+002  1.9999860E+000 |
|    10     5 -1.8239353E+002  9.0843465E-002 |
| WARNING: Rescaling coefficients!            |
|    10     6 -5.4718058E+002  1.0000000E+000 |
|    11     1 -1.2205485E+003  7.6184515E-001 |
|    11     2  3.5474689E+000  2.0116597E+000 |
|    11     3 -2.3631514E+000  9.9814790E+000 |
|    11     4 -8.7397997E+000  1.1486403E+000 |
|    11     5 -9.2539713E+000  5.7149950E-002 |
|    11     6 -1.3833704E+001  3.9672531E-001 |
|    11     7 -1.6451167E+001  1.7285616E-001 |
|    11     8 -2.4924083E+001  4.0956444E-001 |
| WARNING: Rescaling coefficients!            |
|    11     9 -7.4772248E+001  1.0000000E+000 |
|    12     1 -2.5079113E+001  9.9534218E-001 |
|    12     2 -3.4691102E+001  3.2163141E-001 |
|    12     3 -4.4373698E+001  2.4492810E-001 |
|    12     4 -5.2578704E+001  1.6925844E-001 |
|    12     5 -6.0519761E+001  1.4042732E-001 |
|    12     6 -7.2821287E+001  1.8451221E-001 |
|    12     7 -8.3123601E+001  1.3212763E-001 |
|    12     8 -9.5768539E+001  1.4136942E-001 |
|    12     9 -1.0648105E+002  1.0593359E-001 |
|    12    10 -1.1302775E+002  5.9648609E-002 |
|    12    11 -1.1815369E+002  4.4345602E-002 |
|    12    12 -1.2399301E+002  4.8229632E-002 |
|    12    13 -1.3014505E+002  4.8414898E-002 |
|    12    14 -1.3359227E+002  2.6141342E-002 |
|    12    15 -1.3653454E+002  2.1784354E-002 |
|    12    16 -1.3906156E+002  1.8338597E-002 |
|    12    17 -1.4302771E+002  2.8119829E-002 |
|    12    18 -1.4694238E+002  2.7000513E-002 |
|    12    19 -1.4981780E+002  1.9378745E-002 |
|    12    20 -1.5182156E+002  1.3285754E-002 |
|    12    21 -1.5353082E+002  1.1195340E-002 |
|    12    22 -1.5543315E+002  1.2314231E-002 |
|    12    23 -1.5724529E+002  1.1591114E-002 |
|    12    24 -1.5912262E+002  1.1867995E-002 |
|    12    25 -1.6104113E+002  1.1984578E-002 |
|    12    26 -1.6235189E+002  8.1062562E-003 |
|    12    27 -1.6371718E+002  8.3742888E-003 |
|    12    28 -1.6493699E+002  7.4230417E-003 |
|    12    29 -1.6603849E+002  6.6560746E-003 |
|    12    30 -1.6722570E+002  7.1247596E-003 |
|    12    31 -1.6820365E+002  5.8310169E-003 |
|    12    32 -1.6918744E+002  5.8317522E-003 |
|    12    33 -1.6985505E+002  3.9382323E-003 |
|    12    34 -1.7062526E+002  4.5242317E-003 |
|    12    35 -1.7123825E+002  3.5861521E-003 |
|    12    36 -1.7191327E+002  3.9342795E-003 |
|    12    37 -1.7245501E+002  3.1462730E-003 |
|    12    38 -1.7298679E+002  3.0788094E-003 |
|    12    39 -1.7342524E+002  2.5314063E-003 |
|    12    40 -1.7393503E+002  2.9352309E-003 |
|    12    41 -1.7433829E+002  2.3157303E-003 |
|    12    42 -1.7479790E+002  2.6328282E-003 |
|    12    43 -1.7514314E+002  1.9731504E-003 |
|    12    44 -1.7551827E+002  2.1395597E-003 |
|    12    45 -1.7577144E+002  1.4413563E-003 |
|    12    46 -1.7601029E+002  1.3579426E-003 |
|    12    47 -1.7618345E+002  9.8335242E-004 |
|    12    48 -1.7635106E+002  9.5088081E-004 |
|    12    49 -1.7649631E+002  8.2328043E-004 |
|    12    50 -1.7664374E+002  8.3499374E-004 |
|    12    51 -1.7677031E+002  7.1626210E-004 |
|    12    52 -1.7687566E+002  5.9582145E-004 |
|    12    53 -1.7695362E+002  4.4061692E-004 |
|    12    54 -1.7702362E+002  3.9552936E-004 |
|    12    55 -1.7708150E+002  3.2688658E-004 |
|    12    56 -1.7714195E+002  3.4134451E-004 |
|    12    57 -1.7719384E+002  2.9289516E-004 |
|    12    58 -1.7725237E+002  3.3025816E-004 |
|    12    59 -1.7730204E+002  2.8015748E-004 |
|    12    60 -1.7734839E+002  2.6138201E-004 |
|    12    61 -1.7738013E+002  1.7897317E-004 |
|    12    62 -1.7740692E+002  1.5099724E-004 |
|    12    63 -1.7742628E+002  1.0914122E-004 |
|    12    64 -1.7744284E+002  9.3307176E-005 |
|    12    65 -1.7745534E+002  7.0438043E-005 |
|    12    66 -1.7746565E+002  5.8091613E-005 |
|    12    67 -1.7747405E+002  4.7342621E-005 |
|    12    68 -1.7748152E+002  4.2087415E-005 |
|    12    69 -1.7748813E+002  3.7251199E-005 |
|    12    70 -1.7749452E+002  3.6007122E-005 |
|    12    71 -1.7750049E+002  3.3658072E-005 |
|    12    72 -1.7750706E+002  3.6974967E-005 |
|    12    73 -1.7751366E+002  3.7214358E-005 |
|    12    74 -1.7752164E+002  4.4963303E-005 |
|    12    75 -1.7752949E+002  4.4219411E-005 |
|    12    76 -1.7753835E+002  4.9877553E-005 |
|    12    77 -1.7754632E+002  4.4900652E-005 |
|    12    78 -1.7755473E+002  4.7343309E-005 |
|    12    79 -1.7756198E+002  4.0849495E-005 |
|    12    80 -1.7756894E+002  3.9217953E-005 |
|    12    81 -1.7757459E+002  3.1812534E-005 |
|    12    82 -1.7757965E+002  2.8463354E-005 |
|    12    83 -1.7758375E+002  2.3109286E-005 |
|    12    84 -1.7758732E+002  2.0084648E-005 |
|    12    85 -1.7759026E+002  1.6560650E-005 |
|    12    86 -1.7759279E+002  1.4276606E-005 |
|    12    87 -1.7759499E+002  1.2365623E-005 |
|    12    88 -1.7759695E+002  1.1038232E-005 |
|    12    89 -1.7759878E+002  1.0317725E-005 |
|    12    90 -1.7760058E+002  1.0132486E-005 |
|    12    91 -1.7760242E+002  1.0339574E-005 |
|    12    92 -1.7760430E+002  1.0611627E-005 |
|    12    93 -1.7760626E+002  1.1006698E-005 |
|    12    94 -1.7760827E+002  1.1342502E-005 |
|    12    95 -1.7761037E+002  1.1807887E-005 |
|    12    96 -1.7761253E+002  1.2147133E-005 |
|    12    97 -1.7761473E+002  1.2405273E-005 |
|    12    98 -1.7761700E+002  1.2794608E-005 |
|    12    99 -1.7761928E+002  1.2797772E-005 |
|    12   100 -1.7762152E+002  1.2636761E-005 |
|    12   101 -1.7762365E+002  1.1983907E-005 |
|    12   102 -1.7762564E+002  1.1211984E-005 |
|    12   103 -1.7762747E+002  1.0280584E-005 |
|    12   104 -1.7762912E+002  9.3028301E-006 |
|    12   105 -1.7763060E+002  8.3508808E-006 |
|    12   106 -1.7763192E+002  7.4272810E-006 |
|    12   107 -1.7763309E+002  6.5639266E-006 |
|    12   108 -1.7763411E+002  5.7216023E-006 |
|    12   109 -1.7763499E+002  4.9704552E-006 |
|    12   110 -1.7763576E+002  4.3412502E-006 |
|    12   111 -1.7763643E+002  3.8041513E-006 |
|    12   112 -1.7763704E+002  3.4271332E-006 |
|    12   113 -1.7763760E+002  3.1475363E-006 |
|    12   114 -1.7763813E+002  2.9917234E-006 |
|    12   115 -1.7763864E+002  2.8713942E-006 |
|    12   116 -1.7763913E+002  2.7614470E-006 |
|    12   117 -1.7763960E+002  2.6246527E-006 |
|    12   118 -1.7764004E+002  2.4736368E-006 |
|    12   119 -1.7764044E+002  2.2659393E-006 |
|    12   120 -1.7764081E+002  2.0833749E-006 |
|    12   121 -1.7764115E+002  1.8822027E-006 |
|    12   122 -1.7764146E+002  1.7458555E-006 |
|    12   123 -1.7764174E+002  1.5791658E-006 |
|    12   124 -1.7764200E+002  1.4479685E-006 |
|    12   125 -1.7764223E+002  1.3096731E-006 |
|    12   126 -1.7764244E+002  1.2204350E-006 |
|    12   127 -1.7764265E+002  1.1319297E-006 |
|    12   128 -1.7764284E+002  1.1042359E-006 |
|    12   129 -1.7764303E+002  1.0786884E-006 |
|    12   130 -1.7764323E+002  1.1280797E-006 |
|    12   131 -1.7764344E+002  1.1550099E-006 |
|    12   132 -1.7764366E+002  1.2376299E-006 |
|    12   133 -1.7764389E+002  1.2792764E-006 |
|    12   134 -1.7764413E+002  1.3881803E-006 |
|    12   135 -1.7764438E+002  1.4099791E-006 |
|    12   136 -1.7764465E+002  1.4999593E-006 |
|    12   137 -1.7764491E+002  1.4826965E-006 |
|    12   138 -1.7764518E+002  1.5232263E-006 |
|    12   139 -1.7764545E+002  1.4924985E-006 |
|    12   140 -1.7764571E+002  1.4806026E-006 |
|    12   141 -1.7764597E+002  1.4749842E-006 |
|    12   142 -1.7764623E+002  1.4496071E-006 |
|    12   143 -1.7764649E+002  1.4620533E-006 |
|    12   144 -1.7764675E+002  1.4377674E-006 |
|    12   145 -1.7764701E+002  1.4701731E-006 |
|    12   146 -1.7764727E+002  1.4858187E-006 |
|    12   147 -1.7764754E+002  1.5212717E-006 |
|    12   148 -1.7764782E+002  1.5810371E-006 |
|    12   149 -1.7764811E+002  1.6084424E-006 |
|    12   150 -1.7764841E+002  1.6681624E-006 |
|    12   151 -1.7764869E+002  1.6205512E-006 |
|    12   152 -1.7764898E+002  1.6004722E-006 |
|    12   153 -1.7764924E+002  1.4907074E-006 |
|    12   154 -1.7764950E+002  1.4301615E-006 |
|    12   155 -1.7764973E+002  1.3101224E-006 |
|    12   156 -1.7764995E+002  1.2455373E-006 |
|    12   157 -1.7765016E+002  1.1698530E-006 |
|    12   158 -1.7765035E+002  1.1027263E-006 |
|    12   159 -1.7765054E+002  1.0503732E-006 |
|    12   160 -1.7765071E+002  9.7499292E-007 |
|    12   161 -1.7765088E+002  9.5512086E-007 |
|    12   162 -1.7765104E+002  9.0900051E-007 |
|    12   163 -1.7765121E+002  9.1245701E-007 |
|    12   164 -1.7765137E+002  8.9839949E-007 |
|    12   165 -1.7765153E+002  9.1699409E-007 |
|    12   166 -1.7765169E+002  9.2119600E-007 |
|    12   167 -1.7765186E+002  9.1718089E-007 |
|    12   168 -1.7765202E+002  9.1463272E-007 |
|    12   169 -1.7765218E+002  9.0998986E-007 |
|    12   170 -1.7765234E+002  9.2151522E-007 |
|    12   171 -1.7765251E+002  9.2270908E-007 |
|    12   172 -1.7765268E+002  9.4327498E-007 |
|    12   173 -1.7765285E+002  9.5972569E-007 |
|    12   174 -1.7765302E+002  9.9770245E-007 |
|    12   175 -1.7765320E+002  1.0114066E-006 |
|    12   176 -1.7765339E+002  1.0493881E-006 |
|    12   177 -1.7765358E+002  1.0559362E-006 |
|    12   178 -1.7765377E+002  1.0859726E-006 |
|    12   179 -1.7765396E+002  1.0549101E-006 |
|    12   180 -1.7765414E+002  1.0544775E-006 |
|    12   181 -1.7765432E+002  9.9698321E-007 |
|    12   182 -1.7765449E+002  9.7407287E-007 |
|    12   183 -1.7765466E+002  9.0748313E-007 |
|    12   184 -1.7765481E+002  8.7186965E-007 |
|    12   185 -1.7765496E+002  8.1604928E-007 |
|    12   186 -1.7765509E+002  7.6953950E-007 |
|    12   187 -1.7765522E+002  7.1110592E-007 |
|    12   188 -1.7765533E+002  6.4702846E-007 |
|    12   189 -1.7765544E+002  5.9283673E-007 |
|    12   190 -1.7765553E+002  5.2945811E-007 |
|    12   191 -1.7765562E+002  4.7780978E-007 |
|    12   192 -1.7765569E+002  4.3260092E-007 |
|    12   193 -1.7765576E+002  3.9065118E-007 |
|    12   194 -1.7765583E+002  3.6379047E-007 |
|    12   195 -1.7765589E+002  3.2793473E-007 |
|    12   196 -1.7765594E+002  3.1279421E-007 |
|    12   197 -1.7765599E+002  2.9275055E-007 |
|    12   198 -1.7765605E+002  2.9118411E-007 |
|    12   199 -1.7765610E+002  2.8341542E-007 |
|    12   200 -1.7765615E+002  2.9449192E-007 |
|    12   201 -1.7765620E+002  3.0100030E-007 |
|    12   202 -1.7765626E+002  3.1972587E-007 |
|    12   203 -1.7765632E+002  3.3053214E-007 |
|    12   204 -1.7765638E+002  3.4283859E-007 |
|    12   205 -1.7765644E+002  3.5454866E-007 |
|    12   206 -1.7765651E+002  3.5632889E-007 |
|    12   207 -1.7765657E+002  3.6596889E-007 |
|    12   208 -1.7765663E+002  3.5695544E-007 |
|    12   209 -1.7765670E+002  3.6877575E-007 |
|    12   210 -1.7765676E+002  3.5263776E-007 |
|    12   211 -1.7765683E+002  3.5923289E-007 |
|    12   212 -1.7765689E+002  3.3819669E-007 |
|    12   213 -1.7765695E+002  3.3805663E-007 |
|    12   214 -1.7765700E+002  3.1859083E-007 |
|    12   215 -1.7765706E+002  3.1204272E-007 |
|    12   216 -1.7765711E+002  2.9497727E-007 |
|    12   217 -1.7765716E+002  2.8255823E-007 |
|    12   218 -1.7765721E+002  2.6421067E-007 |
|    12   219 -1.7765725E+002  2.4235723E-007 |
|    12   220 -1.7765729E+002  2.2432076E-007 |
|    12   221 -1.7765733E+002  1.9870676E-007 |
|    12   222 -1.7765736E+002  1.8355782E-007 |
|    12   223 -1.7765739E+002  1.5894183E-007 |
|    12   224 -1.7765741E+002  1.4709446E-007 |
|    12   225 -1.7765744E+002  1.2856789E-007 |
|    12   226 -1.7765746E+002  1.1726739E-007 |
|    12   227 -1.7765748E+002  1.0549932E-007 |
|    12   228 -1.7765749E+002  9.6042350E-008 |
|    12   229 -1.7765751E+002  9.0423822E-008 |
|    12   230 -1.7765752E+002  8.2651268E-008 |
|    12   231 -1.7765754E+002  7.9435295E-008 |
|    12   232 -1.7765755E+002  7.3468442E-008 |
|    12   233 -1.7765756E+002  7.1576338E-008 |
|    12   234 -1.7765757E+002  6.5766253E-008 |
|    12   235 -1.7765759E+002  6.3534863E-008 |
|    12   236 -1.7765760E+002  5.8992458E-008 |
|    12   237 -1.7765761E+002  5.7193650E-008 |
|    12   238 -1.7765762E+002  5.3752699E-008 |
|    12   239 -1.7765763E+002  5.1987298E-008 |
|    12   240 -1.7765763E+002  5.0361273E-008 |
|    12   241 -1.7765764E+002  4.9213151E-008 |
|    12   242 -1.7765765E+002  4.8847288E-008 |
|    12   243 -1.7765766E+002  4.7904632E-008 |
|    12   244 -1.7765767E+002  4.9251645E-008 |
|    12   245 -1.7765768E+002  4.8920102E-008 |
|    12   246 -1.7765769E+002  5.1116356E-008 |
|    12   247 -1.7765770E+002  5.1763089E-008 |
|    12   248 -1.7765771E+002  5.4415054E-008 |
|    12   249 -1.7765772E+002  5.5889179E-008 |
|    12   250 -1.7765773E+002  5.7115248E-008 |
|    12   251 -1.7765774E+002  5.8717844E-008 |
|    12   252 -1.7765775E+002  5.8709216E-008 |
|    12   253 -1.7765776E+002  6.0925135E-008 |
|    12   254 -1.7765777E+002  5.9543175E-008 |
|    12   255 -1.7765778E+002  6.2167431E-008 |
|    12   256 -1.7765779E+002  6.1098431E-008 |
|    12   257 -1.7765780E+002  6.3034380E-008 |
|    12   258 -1.7765781E+002  6.2139718E-008 |
|    12   259 -1.7765782E+002  6.2475820E-008 |
|    12   260 -1.7765783E+002  6.3422745E-008 |
|    12   261 -1.7765785E+002  6.2601466E-008 |
|    12   262 -1.7765786E+002  6.4307538E-008 |
|    12   263 -1.7765787E+002  6.2387044E-008 |
|    12   264 -1.7765788E+002  6.4146511E-008 |
|    12   265 -1.7765789E+002  6.1323157E-008 |
|    12   266 -1.7765790E+002  6.1356116E-008 |
|    12   267 -1.7765791E+002  5.8701428E-008 |
|    12   268 -1.7765792E+002  5.8126887E-008 |
|    12   269 -1.7765793E+002  5.6026740E-008 |
|    12   270 -1.7765794E+002  5.3826209E-008 |
|    12   271 -1.7765795E+002  5.1438118E-008 |
|    12   272 -1.7765796E+002  4.8474127E-008 |
|    12   273 -1.7765797E+002  4.6536132E-008 |
|    12   274 -1.7765798E+002  4.3089927E-008 |
|    12   275 -1.7765798E+002  4.2116425E-008 |
|    12   276 -1.7765799E+002  3.9277248E-008 |
|    12   277 -1.7765800E+002  3.8739718E-008 |
|    12   278 -1.7765800E+002  3.5827784E-008 |
|    12   279 -1.7765801E+002  3.4956170E-008 |
|    12   280 -1.7765801E+002  3.2847464E-008 |
|    12   281 -1.7765802E+002  3.1590597E-008 |
|    12   282 -1.7765803E+002  3.0172513E-008 |
|    12   283 -1.7765803E+002  2.8267973E-008 |
|    12   284 -1.7765804E+002  2.7307284E-008 |
|    12   285 -1.7765804E+002  2.5049096E-008 |
|    12   286 -1.7765804E+002  2.4312445E-008 |
|    12   287 -1.7765805E+002  2.2058948E-008 |
|    12   288 -1.7765805E+002  2.1492131E-008 |
|    12   289 -1.7765806E+002  1.9470579E-008 |
|    12   290 -1.7765806E+002  1.8644089E-008 |
|    12   291 -1.7765806E+002  1.7154647E-008 |
|    12   292 -1.7765806E+002  1.6195993E-008 |
|    12   293 -1.7765807E+002  1.5358794E-008 |
|    12   294 -1.7765807E+002  1.4233108E-008 |
|    12   295 -1.7765807E+002  1.3777676E-008 |
|    12   296 -1.7765807E+002  1.2726051E-008 |
|    12   297 -1.7765808E+002  1.2287449E-008 |
|    12   298 -1.7765808E+002  1.1196390E-008 |
|    12   299 -1.7765808E+002  1.0690331E-008 |
|    12   300 -1.7765808E+002  9.8219680E-009 |
|    12   301 -1.7765808E+002  9.2872492E-009 |
|    12   302 -1.7765809E+002  8.6328709E-009 |
|    12   303 -1.7765809E+002  8.1963426E-009 |
|    12   304 -1.7765809E+002  7.7308941E-009 |
|    12   305 -1.7765809E+002  7.3999198E-009 |
|    12   306 -1.7765809E+002  6.9888666E-009 |
|    12   307 -1.7765809E+002  6.8277848E-009 |
|    12   308 -1.7765809E+002  6.5852641E-009 |
|    12   309 -1.7765809E+002  6.5215049E-009 |
|    12   310 -1.7765810E+002  6.3697525E-009 |
|    12   311 -1.7765810E+002  6.4441506E-009 |
|    12   312 -1.7765810E+002  6.4251714E-009 |
|    12   313 -1.7765810E+002  6.5765357E-009 |
|    12   314 -1.7765810E+002  6.6194138E-009 |
|    12   315 -1.7765810E+002  6.7480063E-009 |
|    12   316 -1.7765810E+002  6.8460082E-009 |
|    12   317 -1.7765810E+002  6.8470406E-009 |
|    12   318 -1.7765811E+002  6.9620785E-009 |
|    12   319 -1.7765811E+002  7.0248333E-009 |
|    12   320 -1.7765811E+002  7.1296301E-009 |
|    12   321 -1.7765811E+002  7.2572510E-009 |
|    12   322 -1.7765811E+002  7.2299271E-009 |
|    12   323 -1.7765811E+002  7.4085717E-009 |
|    12   324 -1.7765811E+002  7.2312964E-009 |
|    12   325 -1.7765811E+002  7.2413679E-009 |
|    12   326 -1.7765812E+002  7.0283710E-009 |
|    12   327 -1.7765812E+002  6.9128280E-009 |
|    12   328 -1.7765812E+002  6.7238237E-009 |
|    12   329 -1.7765812E+002  6.4757377E-009 |
|    12   330 -1.7765812E+002  6.2849179E-009 |
|    12   331 -1.7765812E+002  6.0167592E-009 |
|    12   332 -1.7765812E+002  5.7793145E-009 |
|    12   333 -1.7765812E+002  5.4379321E-009 |
|    12   334 -1.7765812E+002  5.1729844E-009 |
|    12   335 -1.7765813E+002  4.9249661E-009 |
|    12   336 -1.7765813E+002  4.6692487E-009 |
|    12   337 -1.7765813E+002  4.5303628E-009 |
|    12   338 -1.7765813E+002  4.3112233E-009 |
|    12   339 -1.7765813E+002  4.2730367E-009 |
|    12   340 -1.7765813E+002  4.0644242E-009 |
|    12   341 -1.7765813E+002  3.9951481E-009 |
|    12   342 -1.7765813E+002  3.7941742E-009 |
|    12   343 -1.7765813E+002  3.7362797E-009 |
|    12   344 -1.7765813E+002  3.5501008E-009 |
|    12   345 -1.7765813E+002  3.4333823E-009 |
|    12   346 -1.7765813E+002  3.2667123E-009 |
|    12   347 -1.7765813E+002  3.1451312E-009 |
|    12   348 -1.7765813E+002  2.9919785E-009 |
|    12   349 -1.7765813E+002  2.8575208E-009 |
|    12   350 -1.7765814E+002  2.6892908E-009 |
|    12   351 -1.7765814E+002  2.5814577E-009 |
|    12   352 -1.7765814E+002  2.4044079E-009 |
|    12   353 -1.7765814E+002  2.3112839E-009 |
|    12   354 -1.7765814E+002  2.1783783E-009 |
|    12   355 -1.7765814E+002  2.1452976E-009 |
|    12   356 -1.7765814E+002  2.0508473E-009 |
|    12   357 -1.7765814E+002  2.0394009E-009 |
|    12   358 -1.7765814E+002  1.9638228E-009 |
|    12   359 -1.7765814E+002  1.9650231E-009 |
|    12   360 -1.7765814E+002  1.8943481E-009 |
|    12   361 -1.7765814E+002  1.8881693E-009 |
|    12   362 -1.7765814E+002  1.8455814E-009 |
|    12   363 -1.7765814E+002  1.8663389E-009 |
|    12   364 -1.7765814E+002  1.8478013E-009 |
|    12   365 -1.7765814E+002  1.8594830E-009 |
|    12   366 -1.7765814E+002  1.8540810E-009 |
|    12   367 -1.7765814E+002  1.8677861E-009 |
|    12   368 -1.7765814E+002  1.8429304E-009 |
|    12   369 -1.7765814E+002  1.8407742E-009 |
|    12   370 -1.7765814E+002  1.8131319E-009 |
|    12   371 -1.7765814E+002  1.8209453E-009 |
|    12   372 -1.7765814E+002  1.7796430E-009 |
|    12   373 -1.7765814E+002  1.7506665E-009 |
|    12   374 -1.7765814E+002  1.7052724E-009 |
|    12   375 -1.7765814E+002  1.6665083E-009 |
|    12   376 -1.7765814E+002  1.5985984E-009 |
|    12   377 -1.7765814E+002  1.5323627E-009 |
|    12   378 -1.7765814E+002  1.4562731E-009 |
|    12   379 -1.7765814E+002  1.3859680E-009 |
|    12   380 -1.7765815E+002  1.2970072E-009 |
|    12   381 -1.7765815E+002  1.2088062E-009 |
|    12   382 -1.7765815E+002  1.1459753E-009 |
|    12   383 -1.7765815E+002  1.0655795E-009 |
|    12   384 -1.7765815E+002  1.0299070E-009 |
|    12   385 -1.7765815E+002  9.4840295E-010 |
+---------------------------------------------+
 wefui
| minim: icg             =   432              |
| minim: 2*Tr[(2*I-S)*S] =   207.9999999      |
+---------------------------------------------+

siesta: iscf =    2
Eharris(eV) =      18229.3682  E_KS(eV) =      -2507.3805  dDmax =  53.091057

+---------------------------------------------+
| OMM (sparse algebra+preconditioning)        |
+---------------------------------------------+
|             E_OMM            E_diff         |
| WARNING: Rescaling coefficients!            |
|     1     1 -1.5663253E+002  1.0000000E+000 |
|     2     1 -6.3117421E+001  8.5110470E-001 |
|     2     2 -7.2904429E+001  1.4390347E-001 |
|     2     3 -9.0784483E+001  2.1846383E-001 |
|     2     4 -9.5763821E+001  5.3383901E-002 |
|     2     5 -9.8798234E+001  3.1192233E-002 |
|     2     6 -1.0088088E+002  2.0859933E-002 |
|     2     7 -1.0255181E+002  1.6427330E-002 |
|     2     8 -1.0444002E+002  1.8244353E-002 |
|     2     9 -1.0595394E+002  1.4391272E-002 |
|     2    10 -1.0783984E+002  1.7642241E-002 |
|     2    11 -1.0962277E+002  1.6397519E-002 |
|     2    12 -1.1113619E+002  1.3711116E-002 |
|     2    13 -1.1284420E+002  1.5251380E-002 |
|     2    14 -1.1436383E+002  1.3376611E-002 |
|     2    15 -1.1554083E+002  1.0238999E-002 |
|     2    16 -1.1656949E+002  8.8635172E-003 |
|     2    17 -1.1715913E+002  5.0455441E-003 |
|     2    18 -1.1751288E+002  3.0148259E-003 |
|     2    19 -1.1776361E+002  2.1313752E-003 |
|     2    20 -1.1795392E+002  1.6146987E-003 |
|     2    21 -1.1807135E+002  9.9507370E-004 |
|     2    22 -1.1811823E+002  3.9696144E-004 |
|     2    23 -1.1814394E+002  2.1764595E-004 |
|     2    24 -1.1815326E+002  7.8870959E-005 |
|     2    25 -1.1816119E+002  6.7159100E-005 |
|     2    26 -1.1816986E+002  7.3315109E-005 |
|     2    27 -1.1817603E+002  5.2244244E-005 |
|     2    28 -1.1817941E+002  2.8571673E-005 |
|     2    29 -1.1818093E+002  1.2884688E-005 |
|     2    30 -1.1818196E+002  8.7019510E-006 |
|     2    31 -1.1818264E+002  5.7384388E-006 |
|     2    32 -1.1818321E+002  4.8842057E-006 |
|     2    33 -1.1818395E+002  6.2729848E-006 |
|     2    34 -1.1818457E+002  5.1973419E-006 |
|     2    35 -1.1818515E+002  4.9388506E-006 |
|     2    36 -1.1818558E+002  3.6619579E-006 |
|     2    37 -1.1818586E+002  2.3437051E-006 |
|     2    38 -1.1818603E+002  1.3835817E-006 |
|     2    39 -1.1818612E+002  7.7460991E-007 |
|     2    40 -1.1818617E+002  4.6068434E-007 |
|     2    41 -1.1818620E+002  2.6413756E-007 |
|     2    42 -1.1818622E+002  1.2787863E-007 |
|     2    43 -1.1818623E+002  7.4114828E-008 |
|     2    44 -1.1818623E+002  3.5355451E-008 |
|     2    45 -1.1818623E+002  2.0573603E-008 |
|     2    46 -1.1818623E+002  1.2001000E-008 |
|     2    47 -1.1818624E+002  7.3297610E-009 |
|     2    48 -1.1818624E+002  4.6229320E-009 |
|     2    49 -1.1818624E+002  3.3568366E-009 |
|     2    50 -1.1818624E+002  2.7285706E-009 |
|     2    51 -1.1818624E+002  2.0578723E-009 |
|     2    52 -1.1818624E+002  1.5352675E-009 |
|     2    53 -1.1818624E+002  1.0356961E-009 |
|     2    54 -1.1818624E+002  5.8868599E-010 |
+---------------------------------------------+
 wefui
| minim: icg             =    55              |
| minim: 2*Tr[(2*I-S)*S] =   207.9999998      |
+---------------------------------------------+

siesta: iscf =    3
Eharris(eV) =     -13353.2705  E_KS(eV) =     -12172.0992  dDmax =  50.186532

+---------------------------------------------+
| OMM (sparse algebra+preconditioning)        |
+---------------------------------------------+
|             E_OMM            E_diff         |
|     1     1 -1.1777574E+002  2.5681362E-004 |
|     1     2 -1.1778254E+002  5.7710643E-005 |
|     1     3 -1.1778537E+002  2.4037399E-005 |
|     1     4 -1.1778703E+002  1.4162257E-005 |
|     1     5 -1.1778817E+002  9.6766006E-006 |
|     1     6 -1.1778915E+002  8.3195190E-006 |
|     1     7 -1.1779004E+002  7.5043031E-006 |
|     1     8 -1.1779096E+002  7.8560299E-006 |
|     1     9 -1.1779202E+002  8.9818247E-006 |
|     1    10 -1.1779412E+002  1.7815629E-005 |
|     1    11 -1.1779726E+002  2.6660685E-005 |
|     1    12 -1.1780104E+002  3.2073097E-005 |
|     1    13 -1.1780494E+002  3.3077378E-005 |
|     1    14 -1.1780969E+002  4.0334891E-005 |
|     1    15 -1.1781426E+002  3.8789292E-005 |
|     1    16 -1.1781898E+002  4.0052457E-005 |
|     1    17 -1.1782264E+002  3.1124040E-005 |
|     1    18 -1.1782527E+002  2.2336261E-005 |
|     1    19 -1.1782704E+002  1.4943001E-005 |
|     1    20 -1.1782802E+002  8.3507344E-006 |
|     1    21 -1.1782869E+002  5.7347451E-006 |
|     1    22 -1.1782910E+002  3.4539011E-006 |
|     1    23 -1.1782934E+002  2.0150689E-006 |
|     1    24 -1.1782948E+002  1.2315092E-006 |
|     1    25 -1.1782956E+002  5.9925017E-007 |
|     1    26 -1.1782960E+002  3.4594934E-007 |
|     1    27 -1.1782962E+002  1.7628942E-007 |
|     1    28 -1.1782963E+002  1.3174077E-007 |
|     1    29 -1.1782964E+002  8.2289842E-008 |
|     1    30 -1.1782965E+002  6.0233301E-008 |
|     1    31 -1.1782965E+002  4.7948936E-008 |
|     1    32 -1.1782966E+002  4.3067373E-008 |
|     1    33 -1.1782966E+002  4.2668762E-008 |
|     1    34 -1.1782967E+002  3.9772769E-008 |
|     1    35 -1.1782967E+002  3.2837499E-008 |
|     1    36 -1.1782968E+002  2.6369118E-008 |
|     1    37 -1.1782968E+002  2.1804728E-008 |
|     1    38 -1.1782968E+002  1.9391155E-008 |
|     1    39 -1.1782968E+002  1.6891382E-008 |
|     1    40 -1.1782969E+002  1.5150330E-008 |
|     1    41 -1.1782969E+002  1.2305224E-008 |
|     1    42 -1.1782969E+002  1.0899860E-008 |
|     1    43 -1.1782969E+002  9.2674622E-009 |
|     1    44 -1.1782969E+002  8.4056625E-009 |
|     1    45 -1.1782969E+002  7.1242909E-009 |
|     1    46 -1.1782969E+002  5.8818387E-009 |
|     1    47 -1.1782969E+002  4.0177976E-009 |
|     1    48 -1.1782969E+002  2.8760928E-009 |
|     1    49 -1.1782969E+002  1.7911572E-009 |
|     1    50 -1.1782969E+002  1.1318163E-009 |
|     1    51 -1.1782969E+002  7.1179985E-010 |
+---------------------------------------------+
 wefui
| minim: icg             =    51              |
| minim: 2*Tr[(2*I-S)*S] =   207.9999999      |
+---------------------------------------------+

siesta: iscf =    4
Eharris(eV) =     -12133.0444  E_KS(eV) =     -12168.3741  dDmax =   1.355654

+---------------------------------------------+
| OMM (sparse algebra+preconditioning)        |
+---------------------------------------------+
|             E_OMM            E_diff         |
|     1     1 -1.1797607E+002  1.5815526E-005 |
|     1     2 -1.1797675E+002  5.7922239E-006 |
|     1     3 -1.1797720E+002  3.8210010E-006 |
|     1     4 -1.1797760E+002  3.3590648E-006 |
|     1     5 -1.1797809E+002  4.2197223E-006 |
|     1     6 -1.1797855E+002  3.8862784E-006 |
|     1     7 -1.1797891E+002  3.0420216E-006 |
|     1     8 -1.1797911E+002  1.7049583E-006 |
|     1     9 -1.1797924E+002  1.0658799E-006 |
|     1    10 -1.1797934E+002  8.2964648E-007 |
|     1    11 -1.1797939E+002  4.7510692E-007 |
|     1    12 -1.1797943E+002  2.7198643E-007 |
|     1    13 -1.1797944E+002  1.2595164E-007 |
|     1    14 -1.1797945E+002  7.7948489E-008 |
|     1    15 -1.1797945E+002  3.8284682E-008 |
|     1    16 -1.1797946E+002  2.8034358E-008 |
|     1    17 -1.1797946E+002  1.4413089E-008 |
|     1    18 -1.1797946E+002  6.8325927E-009 |
|     1    19 -1.1797946E+002  4.3237153E-009 |
|     1    20 -1.1797946E+002  2.0400712E-009 |
|     1    21 -1.1797946E+002  8.3365606E-010 |
+---------------------------------------------+
 wefui
| minim: icg             =    21              |
| minim: 2*Tr[(2*I-S)*S] =   208.0000000      |
+---------------------------------------------+

siesta: iscf =    5
Eharris(eV) =     -12158.0857  E_KS(eV) =     -12163.4410  dDmax =   0.234474

+---------------------------------------------+
| OMM (sparse algebra+preconditioning)        |
+---------------------------------------------+
|             E_OMM            E_diff         |
|     1     1 -1.1600900E+002  1.0627318E-003 |
|     1     2 -1.1605153E+002  3.6659432E-004 |
|     1     3 -1.1608961E+002  3.2809348E-004 |
|     1     4 -1.1616033E+002  6.0894817E-004 |
|     1     5 -1.1623673E+002  6.5754362E-004 |
|     1     6 -1.1635224E+002  9.9321373E-004 |
|     1     7 -1.1644986E+002  8.3863991E-004 |
|     1     8 -1.1653706E+002  7.4859616E-004 |
|     1     9 -1.1659125E+002  4.6484984E-004 |
|     1    10 -1.1662948E+002  3.2785184E-004 |
|     1    11 -1.1665778E+002  2.4263907E-004 |
|     1    12 -1.1667931E+002  1.8451672E-004 |
|     1    13 -1.1670252E+002  1.9888225E-004 |
|     1    14 -1.1672327E+002  1.7785313E-004 |
|     1    15 -1.1673775E+002  1.2397910E-004 |
|     1    16 -1.1675073E+002  1.1119588E-004 |
|     1    17 -1.1676061E+002  8.4639986E-005 |
|     1    18 -1.1676796E+002  6.2907225E-005 |
|     1    19 -1.1677487E+002  5.9222395E-005 |
|     1    20 -1.1678087E+002  5.1339233E-005 |
|     1    21 -1.1678687E+002  5.1437923E-005 |
|     1    22 -1.1679339E+002  5.5775723E-005 |
|     1    23 -1.1679881E+002  4.6416190E-005 |
|     1    24 -1.1680461E+002  4.9648842E-005 |
|     1    25 -1.1680983E+002  4.4691641E-005 |
|     1    26 -1.1681447E+002  3.9696929E-005 |
|     1    27 -1.1681841E+002  3.3748986E-005 |
|     1    28 -1.1682129E+002  2.4690657E-005 |
|     1    29 -1.1682345E+002  1.8468527E-005 |
|     1    30 -1.1682469E+002  1.0661090E-005 |
|     1    31 -1.1682578E+002  9.2923581E-006 |
|     1    32 -1.1682670E+002  7.8762172E-006 |
|     1    33 -1.1682761E+002  7.7746026E-006 |
|     1    34 -1.1682862E+002  8.6525642E-006 |
|     1    35 -1.1682974E+002  9.5866425E-006 |
|     1    36 -1.1683106E+002  1.1292457E-005 |
|     1    37 -1.1683262E+002  1.3342480E-005 |
|     1    38 -1.1683440E+002  1.5248449E-005 |
|     1    39 -1.1683600E+002  1.3660505E-005 |
|     1    40 -1.1683776E+002  1.5081795E-005 |
|     1    41 -1.1683926E+002  1.2821239E-005 |
|     1    42 -1.1684068E+002  1.2161596E-005 |
|     1    43 -1.1684201E+002  1.1421811E-005 |
|     1    44 -1.1684303E+002  8.7079994E-006 |
|     1    45 -1.1684388E+002  7.2805162E-006 |
|     1    46 -1.1684442E+002  4.6430108E-006 |
|     1    47 -1.1684475E+002  2.8019502E-006 |
|     1    48 -1.1684497E+002  1.8979611E-006 |
|     1    49 -1.1684510E+002  1.0643862E-006 |
|     1    50 -1.1684518E+002  7.5684222E-007 |
|     1    51 -1.1684524E+002  4.6895691E-007 |
|     1    52 -1.1684528E+002  3.4220199E-007 |
|     1    53 -1.1684530E+002  2.2356816E-007 |
|     1    54 -1.1684532E+002  1.5637856E-007 |
|     1    55 -1.1684534E+002  1.4680441E-007 |
|     1    56 -1.1684535E+002  1.2218958E-007 |
|     1    57 -1.1684537E+002  1.2012705E-007 |
|     1    58 -1.1684538E+002  1.0792618E-007 |
|     1    59 -1.1684539E+002  9.4381789E-008 |
|     1    60 -1.1684540E+002  9.1000759E-008 |
|     1    61 -1.1684541E+002  7.8647078E-008 |
|     1    62 -1.1684542E+002  6.8021871E-008 |
|     1    63 -1.1684543E+002  7.3144734E-008 |
|     1    64 -1.1684543E+002  5.4191921E-008 |
|     1    65 -1.1684544E+002  4.9064097E-008 |
|     1    66 -1.1684545E+002  4.2660509E-008 |
|     1    67 -1.1684545E+002  3.8016262E-008 |
|     1    68 -1.1684545E+002  3.5013657E-008 |
|     1    69 -1.1684546E+002  3.4508513E-008 |
|     1    70 -1.1684546E+002  3.2018538E-008 |
|     1    71 -1.1684547E+002  3.1522370E-008 |
|     1    72 -1.1684547E+002  2.7832101E-008 |
|     1    73 -1.1684547E+002  2.2444692E-008 |
|     1    74 -1.1684547E+002  2.0205422E-008 |
|     1    75 -1.1684548E+002  1.5930830E-008 |
|     1    76 -1.1684548E+002  1.2795747E-008 |
|     1    77 -1.1684548E+002  1.1398543E-008 |
|     1    78 -1.1684548E+002  8.9470717E-009 |
|     1    79 -1.1684548E+002  7.2018494E-009 |
|     1    80 -1.1684548E+002  5.5283279E-009 |
|     1    81 -1.1684548E+002  3.7691449E-009 |
|     1    82 -1.1684548E+002  2.8646250E-009 |
|     1    83 -1.1684548E+002  1.8765894E-009 |
|     1    84 -1.1684548E+002  1.3386289E-009 |
|     1    85 -1.1684548E+002  9.0352192E-010 |
+---------------------------------------------+
 wefui
| minim: icg             =    85              |
| minim: 2*Tr[(2*I-S)*S] =   207.9999999      |
+---------------------------------------------+

siesta: iscf =    6
Eharris(eV) =     -11850.9436  E_KS(eV) =     -12090.9284  dDmax =   2.314282

+---------------------------------------------+
| OMM (sparse algebra+preconditioning)        |
+---------------------------------------------+
|             E_OMM            E_diff         |
|     1     1 -1.1670116E+002  7.0970205E-004 |
|     1     2 -1.1672716E+002  2.2280778E-004 |
|     1     3 -1.1673892E+002  1.0071465E-004 |
|     1     4 -1.1674920E+002  8.8080062E-005 |
|     1     5 -1.1676337E+002  1.2133578E-004 |
|     1     6 -1.1679084E+002  2.3521923E-004 |
|     1     7 -1.1682227E+002  2.6905601E-004 |
|     1     8 -1.1688229E+002  5.1366725E-004 |
|     1     9 -1.1695847E+002  6.5158247E-004 |
|     1    10 -1.1706690E+002  9.2659957E-004 |
|     1    11 -1.1713952E+002  6.2017740E-004 |
|     1    12 -1.1717151E+002  2.7307801E-004 |
|     1    13 -1.1718874E+002  1.4703751E-004 |
|     1    14 -1.1719669E+002  6.7788892E-005 |
|     1    15 -1.1720200E+002  4.5348489E-005 |
|     1    16 -1.1720540E+002  2.9015659E-005 |
|     1    17 -1.1720789E+002  2.1205216E-005 |
|     1    18 -1.1720959E+002  1.4476090E-005 |
|     1    19 -1.1721051E+002  7.8625603E-006 |
|     1    20 -1.1721119E+002  5.8329567E-006 |
|     1    21 -1.1721160E+002  3.4486831E-006 |
|     1    22 -1.1721184E+002  2.0772168E-006 |
[...]
|     1     1 -1.1754085E+002  1.5372477E-009 |
|     1     2 -1.1754085E+002  1.9963984E-009 |
|     1     3 -1.1754085E+002  1.8771072E-009 |
|     1     4 -1.1754085E+002  2.1953057E-009 |
|     1     5 -1.1754085E+002  3.1879612E-009 |
|     1     6 -1.1754085E+002  4.0532257E-009 |
|     1     7 -1.1754085E+002  4.6888981E-009 |
|     1     8 -1.1754085E+002  4.3306858E-009 |
|     1     9 -1.1754085E+002  3.2070703E-009 |
|     1    10 -1.1754085E+002  2.9988016E-009 |
|     1    11 -1.1754085E+002  3.6455032E-009 |
|     1    12 -1.1754085E+002  2.8714968E-009 |
|     1    13 -1.1754085E+002  2.5270905E-009 |
|     1    14 -1.1754085E+002  1.9833204E-009 |
|     1    15 -1.1754085E+002  1.2498526E-009 |
|     1    16 -1.1754085E+002  9.9989393E-010 |
+---------------------------------------------+
 wefui
| minim: icg             =    16              |
| minim: 2*Tr[(2*I-S)*S] =   208.0000000      |
+---------------------------------------------+

siesta: iscf =   41
Eharris(eV) =     -12183.4111  E_KS(eV) =     -12183.4202  dDmax =   0.017917

+---------------------------------------------+
| OMM (sparse algebra+preconditioning)        |
+---------------------------------------------+
|             E_OMM            E_diff         |
|     1     1 -1.1754054E+002  1.0846343E-009 |
|     1     2 -1.1754054E+002  1.3584115E-009 |
|     1     3 -1.1754054E+002  1.0091834E-009 |
|     1     4 -1.1754055E+002  1.2769560E-009 |
|     1     5 -1.1754055E+002  1.4419856E-009 |
|     1     6 -1.1754055E+002  2.2232058E-009 |
|     1     7 -1.1754055E+002  2.3552121E-009 |
|     1     8 -1.1754055E+002  3.0442571E-009 |
|     1     9 -1.1754055E+002  1.4337281E-009 |
|     1    10 -1.1754055E+002  1.5445291E-009 |
|     1    11 -1.1754055E+002  2.5653005E-009 |
|     1    12 -1.1754055E+002  2.5174795E-009 |
|     1    13 -1.1754055E+002  1.8030581E-009 |
|     1    14 -1.1754055E+002  1.3174455E-009 |
|     1    15 -1.1754055E+002  9.4918323E-010 |
+---------------------------------------------+
 wefui
| minim: icg             =    15              |
| minim: 2*Tr[(2*I-S)*S] =   208.0000000      |
+---------------------------------------------+

siesta: iscf =   42
Eharris(eV) =     -12183.4259  E_KS(eV) =     -12183.4243  dDmax =   0.013026

+---------------------------------------------+
| OMM (sparse algebra+preconditioning)        |
+---------------------------------------------+
|             E_OMM            E_diff         |
|     1     1 -1.1754056E+002  4.5153233E-010 |
+---------------------------------------------+
 wefui
| minim: icg             =     1              |
| minim: 2*Tr[(2*I-S)*S] =   208.0000000      |
+---------------------------------------------+

siesta: iscf =   43
Eharris(eV) =     -12183.4243  E_KS(eV) =     -12183.4243  dDmax =   0.000271

+---------------------------------------------+
| OMM (sparse algebra+preconditioning)        |
+---------------------------------------------+
|             E_OMM            E_diff         |
|     1     1 -1.1754026E+002  3.0930992E-010 |
+---------------------------------------------+
 wefui
| minim: icg             =     1              |
| minim: 2*Tr[(2*I-S)*S] =   208.0000000      |
+---------------------------------------------+

siesta: iscf =   44
Eharris(eV) =     -12183.4243  E_KS(eV) =     -12183.4243  dDmax =   0.000091

+---------------------------------------------+
| OMM (sparse algebra+preconditioning)        |
+---------------------------------------------+
|             E_OMM            E_diff         |
|     1     1 -1.1753503E+002  4.8466996E-008 |
|     1     2 -1.1753503E+002  2.7083439E-008 |
|     1     3 -1.1753504E+002  5.6817698E-008 |
|     1     4 -1.1753505E+002  9.1839741E-008 |
|     1     5 -1.1753506E+002  1.1782044E-007 |
|     1     6 -1.1753508E+002  1.5198630E-007 |
|     1     7 -1.1753510E+002  1.7463885E-007 |
|     1     8 -1.1753512E+002  1.5038046E-007 |
|     1     9 -1.1753513E+002  9.4811817E-008 |
|     1    10 -1.1753514E+002  6.0200430E-008 |
|     1    11 -1.1753514E+002  3.5752983E-008 |
|     1    12 -1.1753514E+002  2.0046710E-008 |
|     1    13 -1.1753515E+002  9.3374169E-009 |
|     1    14 -1.1753515E+002  5.6806978E-009 |
|     1    15 -1.1753515E+002  2.7170411E-009 |
|     1    16 -1.1753515E+002  1.7462488E-009 |
|     1    17 -1.1753515E+002  8.5149773E-010 |
+---------------------------------------------+
 wefui
| minim: icg             =    17              |
| minim: 2*Tr[(2*I-S)*S] =   208.0000000      |
+---------------------------------------------+

siesta: iscf =   45
Eharris(eV) =     -12183.1196  E_KS(eV) =     -12183.3250  dDmax =   0.092737

+---------------------------------------------+
| OMM (sparse algebra+preconditioning)        |
+---------------------------------------------+
|             E_OMM            E_diff         |
|     1     1 -1.1754009E+002  4.0094735E-008 |
|     1     2 -1.1754009E+002  2.1935530E-008 |
|     1     3 -1.1754010E+002  3.5309573E-008 |
|     1     4 -1.1754010E+002  4.5549013E-008 |
|     1     5 -1.1754011E+002  8.1109930E-008 |
|     1     6 -1.1754013E+002  1.0840419E-007 |
|     1     7 -1.1754014E+002  1.5334514E-007 |
|     1     8 -1.1754016E+002  1.3635926E-007 |
|     1     9 -1.1754017E+002  6.4446474E-008 |
|     1    10 -1.1754018E+002  6.8346756E-008 |
|     1    11 -1.1754018E+002  4.0338042E-008 |
|     1    12 -1.1754018E+002  2.9874782E-008 |
|     1    13 -1.1754019E+002  1.4692269E-008 |
|     1    14 -1.1754019E+002  8.7820949E-009 |
|     1    15 -1.1754019E+002  4.2972700E-009 |
|     1    16 -1.1754019E+002  2.7802236E-009 |
|     1    17 -1.1754019E+002  1.3949245E-009 |
|     1    18 -1.1754019E+002  9.3094841E-010 |
+---------------------------------------------+
 wefui
| minim: icg             =    18              |
| minim: 2*Tr[(2*I-S)*S] =   208.0000000      |
+---------------------------------------------+

siesta: iscf =   46
Eharris(eV) =     -12183.4323  E_KS(eV) =     -12183.4245  dDmax =   0.085987

+---------------------------------------------+
| OMM (sparse algebra+preconditioning)        |
+---------------------------------------------+
|             E_OMM            E_diff         |
|     1     1 -1.1753987E+002  4.0558420E-010 |
+---------------------------------------------+
 wefui
| minim: icg             =     1              |
| minim: 2*Tr[(2*I-S)*S] =   208.0000000      |
+---------------------------------------------+

siesta: iscf =   47
Eharris(eV) =     -12183.4245  E_KS(eV) =     -12183.4245  dDmax =   0.000283

+---------------------------------------------+
| OMM (sparse algebra+preconditioning)        |
+---------------------------------------------+
|             E_OMM            E_diff         |
|     1     1 -1.1753949E+002  3.0319706E-010 |
+---------------------------------------------+
 wefui
| minim: icg             =     1              |
| minim: 2*Tr[(2*I-S)*S] =   208.0000000      |
+---------------------------------------------+

siesta: iscf =   48
Eharris(eV) =     -12183.4245  E_KS(eV) =     -12183.4245  dDmax =   0.000080

+---------------------------------------------+
| OMM (sparse algebra+preconditioning)        |
+---------------------------------------------+
|             E_OMM            E_diff         |
|     1     1 -1.1754254E+002  1.7077322E-008 |
|     1     2 -1.1754255E+002  9.7462330E-009 |
|     1     3 -1.1754255E+002  2.0514154E-008 |
|     1     4 -1.1754255E+002  1.7969118E-008 |
|     1     5 -1.1754255E+002  4.0962382E-008 |
|     1     6 -1.1754256E+002  4.7792308E-008 |
|     1     7 -1.1754257E+002  5.6261348E-008 |
|     1     8 -1.1754257E+002  4.9235007E-008 |
|     1     9 -1.1754258E+002  4.2953280E-008 |
|     1    10 -1.1754258E+002  3.8300160E-008 |
|     1    11 -1.1754259E+002  3.0212051E-008 |
|     1    12 -1.1754259E+002  1.8370302E-008 |
|     1    13 -1.1754259E+002  9.2059759E-009 |
|     1    14 -1.1754259E+002  6.3943363E-009 |
|     1    15 -1.1754259E+002  3.6302802E-009 |
|     1    16 -1.1754259E+002  2.8120877E-009 |
|     1    17 -1.1754259E+002  1.5946174E-009 |
|     1    18 -1.1754259E+002  1.3782675E-009 |
|     1    19 -1.1754259E+002  9.1153708E-010 |
+---------------------------------------------+
 wefui
| minim: icg             =    19              |
| minim: 2*Tr[(2*I-S)*S] =   208.0000000      |
+---------------------------------------------+

siesta: iscf =   49
Eharris(eV) =     -12183.2787  E_KS(eV) =     -12183.3767  dDmax =   0.060661

+---------------------------------------------+
| OMM (sparse algebra+preconditioning)        |
+---------------------------------------------+
|             E_OMM            E_diff         |
|     1     1 -1.1753920E+002  1.6918925E-008 |
|     1     2 -1.1753920E+002  1.2457195E-008 |
|     1     3 -1.1753920E+002  2.1886747E-008 |
|     1     4 -1.1753920E+002  2.6477141E-008 |
|     1     5 -1.1753921E+002  4.6147951E-008 |
|     1     6 -1.1753922E+002  5.5979549E-008 |
|     1     7 -1.1753922E+002  6.6049993E-008 |
|     1     8 -1.1753923E+002  5.8476187E-008 |
|     1     9 -1.1753924E+002  4.7923154E-008 |
|     1    10 -1.1753924E+002  2.3644615E-008 |
|     1    11 -1.1753924E+002  1.8623487E-008 |
|     1    12 -1.1753924E+002  9.6650767E-009 |
|     1    13 -1.1753924E+002  7.1846423E-009 |
|     1    14 -1.1753924E+002  4.9628980E-009 |
|     1    15 -1.1753924E+002  4.0706057E-009 |
|     1    16 -1.1753924E+002  2.7406431E-009 |
|     1    17 -1.1753924E+002  1.7298364E-009 |
|     1    18 -1.1753924E+002  1.3376031E-009 |
|     1    19 -1.1753924E+002  8.6919316E-010 |
+---------------------------------------------+
 wefui
| minim: icg             =    19              |
| minim: 2*Tr[(2*I-S)*S] =   208.0000000      |
+---------------------------------------------+

siesta: iscf =   50
Eharris(eV) =     -12183.4219  E_KS(eV) =     -12183.4245  dDmax =   0.060140

SCF_NOT_CONV: SCF did not converge in maximum number of steps.
Geom step, scf iteration, dmax:   2 50    0.002844
 wefui

Using DM_out to compute the final energy and forces
No. of atoms with KB's overlaping orbs in proc 0. Max # of overlaps:      78     107

siesta: E_KS(eV) =           -12183.4245

siesta: Atomic forces (eV/Ang):
----------------------------------------
   Tot    0.162392    0.174058   -0.085996
----------------------------------------
   Max   68.417674
   Res    6.804470    sqrt( Sum f_i^2 / 3N )
----------------------------------------
   Max   68.417674    constrained

Stress-tensor-Voigt (kbar):      -13.67      -75.56      -67.45       -7.36       50.31       25.71
(Free)E + p*V (eV/cell)   -12156.3065
Target enthalpy (eV/cell)   -12183.4245

siesta: Stress tensor (static) (eV/Ang**3):
        -0.008532   -0.004591    0.016045
        -0.004593   -0.047161    0.031392
         0.016047    0.031398   -0.042096

siesta: Pressure (static):         52.22581862  kBar

siesta: Stress tensor (total) (eV/Ang**3):
        -0.008532   -0.004591    0.016045
        -0.004593   -0.047161    0.031392
         0.016047    0.031398   -0.042096

siesta: Pressure (total):         52.22581862  kBar

siesta: Temp_ion =30602736.210 K

siesta: Program's energy decomposition (eV):
siesta: Ebs     =     -2990.656546
siesta: Eions   =     21212.216449
siesta: Ena     =      4988.702765
siesta: Ekin    =      9230.716822
siesta: Enl     =     -1669.204459
siesta: Eso     =         0.000000
siesta: Eldau   =         0.000000
siesta: DEna    =      -572.720312
siesta: DUscf   =        61.050521
siesta: DUext   =         0.000000
siesta: Exc     =     -3009.753342
siesta: eta*DQ  =         0.000000
siesta: Emadel  =         0.000000
siesta: Emeta   =         0.000000
siesta: Emolmec =         0.000000
siesta: Ekinion =    304577.863496
siesta: Eharris =    292394.441634
siesta: Etot    =    292394.439042
siesta: FreeEng =    292394.439042

siesta: Final energy (eV):
siesta:  Band Struct. =   -2990.656546
siesta:       Kinetic =    9230.716822
siesta:       Hartree =    6428.548098
siesta:       Eldau   =       0.000000
siesta:       Eso     =       0.000000
siesta:    Ext. field =       0.000000
siesta:   Exch.-corr. =   -3009.753342
siesta:  Ion-electron =  -21173.341144
siesta:       Ion-ion =   -3659.594888
siesta:       Ekinion =  304577.863496
siesta:         Total =  292394.439042
siesta:         Fermi =       0.000000

siesta: Atomic forces (eV/Ang):
siesta:      1    0.313395    2.627901   -0.981926
siesta:      2   -0.174154   -0.256200    0.603545
siesta:      3   -0.329619   -0.400090   -0.825208
siesta:      4   -0.347553    0.109810    0.356331
siesta:      5    0.154850    0.401680   -0.118935
siesta:      6    0.159702   -0.662908   -0.536103
siesta:      7    0.128110    0.052379   -0.221316
siesta:      8   -0.251177   -0.093670   -0.188317
siesta:      9   -0.014455   -0.036183    0.249948
siesta:     10   -0.134514   -0.317667    0.263333
siesta:     11    0.336630    0.710685   -0.593317
siesta:     12   -0.064313    0.047771    0.060317
siesta:     13    0.511174    0.152831   -0.287290
siesta:     14    0.085337   -0.137831   -0.762407
siesta:     15   -0.768545   -0.202107    0.987509
siesta:     16    0.052701    0.681101    0.401974
siesta:     17   -0.062375   -0.584907   -0.702523
siesta:     18    0.021009   -0.033216    0.347526
siesta:     19    0.596610   -0.702363    0.380633
siesta:     20   -0.405669    0.096531   -0.319723
siesta:     21   -0.192677    0.173082   -0.020784
siesta:     22    0.857203    0.098031   -0.407582
siesta:     23    0.011210   -0.242287    0.168932
siesta:     24   -0.299936   -0.319890    0.109918
siesta:     25   -0.301738    0.204734    0.533810
siesta:     26    0.053815   -0.701081    0.010988
siesta:     27    0.210963    0.559180   -0.457073
siesta:     28    0.355123   -0.297615    1.247234
siesta:     29   -0.119192    0.549396   -0.385866
siesta:     30    0.229143   -0.137903   -0.781658
siesta:     31    0.122953   -0.397595   -0.144447
siesta:     32    0.191398    0.301568   -0.046361
siesta:     33    0.108492    0.118831   -0.116643
siesta:     34    1.767223   -4.916446    3.091888
siesta:     35    0.348686   -0.018717   -0.000814
siesta:     36   -0.564857    0.765512   -0.619731
siesta:     37  -15.017048  -15.772700   39.519158
siesta:     38   -1.618530    1.625266    5.190528
siesta:     39   -2.892291   -4.963692    5.975454
siesta:     40   -0.568483   -0.110109    0.577320
siesta:     41    0.704552   -0.281557   -0.260468
siesta:     42   -0.265996    0.330618   -0.298883
siesta:     43   -0.422215   -0.372285   -0.596293
siesta:     44   -0.227956    0.007746   -0.281859
siesta:     45    0.632013    0.802887    1.134427
siesta:     46   -0.341363    0.103901    0.445245
siesta:     47    0.574288   -0.035791   -0.338050
siesta:     48   -0.606920   -0.359917   -0.843676
siesta:     49   -0.790898   -0.283283   -0.224442
siesta:     50    0.768160    0.329849    0.404371
siesta:     51   -0.301348   -0.130650   -0.470317
siesta:     52    2.034947    0.603878   -0.169111
siesta:     53    0.124235   -0.387864   -0.259264
siesta:     54   -2.029538    0.042852    0.187368
siesta:     55   -0.299274    0.456113   -0.929693
siesta:     56    0.538719   -0.109742    0.615576
siesta:     57   -0.237765   -0.214643    0.132899
siesta:     58    0.592476   -0.264661   -0.178807
siesta:     59   -0.323643    0.078546    0.122251
siesta:     60   -0.494822   -0.045577    0.141942
siesta:     61    1.310441    0.133540   -0.728125
siesta:     62   -0.644236   -0.096990    0.537676
siesta:     63   -0.643805   -0.110135    0.486675
siesta:     64    0.241046   -0.015873    0.807209
siesta:     65    0.101891    0.109066    0.284285
siesta:     66   -0.113309    0.113085   -0.505293
siesta:     67    0.279489   -1.028898   -1.050485
siesta:     68   -0.043949    0.272123    0.155413
siesta:     69    0.133214    0.534503    0.904470
siesta:     70    0.269318    0.269454   -0.307313
siesta:     71    0.175148   -0.144697    0.376335
siesta:     72   -0.539587    0.078982   -0.140258
siesta:     73   -0.137997    0.857318   -0.307505
siesta:     74    0.005145   -0.621238   -0.068637
siesta:     75    0.040153   -0.142987    0.403917
siesta:     76   -1.890285    1.725141   -1.070507
siesta:     77    6.680469   68.417674  -16.967193
siesta:     78   12.822996  -48.417539  -32.788196
siesta: ----------------------------------------
siesta:    Tot    0.162392    0.174058   -0.085996

siesta: Stress tensor (static) (eV/Ang**3):
siesta:    -0.008532   -0.004591    0.016045
siesta:    -0.004593   -0.047161    0.031392
siesta:     0.016047    0.031398   -0.042096

siesta: Cell volume =        831.929999 Ang**3

siesta: Pressure (static):
siesta:                Solid            Molecule  Units
siesta:           0.00035502         -0.00866330  Ry/Bohr**3
siesta:           0.03259644         -0.79543465  eV/Ang**3
siesta:          52.22581862      -1274.44058301  kBar
(Free)E+ p_basis*V_orbitals  =      -12169.880403
(Free)Eharris+ p_basis*V_orbitals  =      -12169.877811

timer: Elapsed wall time (sec) =     179.184
timer: CPU execution times (sec):

Routine            Calls   Time/call    Tot.time        %
siesta                 1     178.480     178.480   100.00
Setup                  1       0.164       0.164     0.09
bands                  1       0.000       0.000     0.00
KSV_init               1       0.004       0.004     0.00
IterGeom               2      89.156     178.312    99.91
state_init             2       0.216       0.432     0.24
hsparse                2       0.084       0.168     0.09
overlap                2       0.128       0.256     0.14
Setup_H0               2       2.848       5.696     3.19
naefs                  4       0.003       0.012     0.01
MolMec                 4       0.000       0.000     0.00
kinefsm                4       0.099       0.396     0.22
nlefsm                 4       0.275       1.100     0.62
DHSCF_Init             2       2.372       4.744     2.66
DHSCF1                 2       0.024       0.048     0.03
INITMESH               2       0.000       0.000     0.00
DHSCF2                 2       2.346       4.692     2.63
REMESH                 2       0.242       0.484     0.27
REORD                148       0.000       0.052     0.03
PHION                  2       1.682       3.364     1.88
COMM_BSC             138       0.000       0.052     0.03
POISON                68       0.022       1.504     0.84
fft                  136       0.008       1.148     0.64
IterSCF               62       2.647     164.108    91.95
setup_H               64       1.206      77.212    43.26
DHSCF                 66       1.280      84.472    47.33
DHSCF3                66       1.206      79.588    44.59
rhoofd                66       0.320      21.140    11.84
CellXC                66       0.655      43.220    24.22
cellXC                66       0.655      43.220    24.22
vmat                  66       0.203      13.392     7.50
compute_dm            62       1.393      86.360    48.39
dmin                  64       1.349      86.340    48.38
m_cg                  64       1.349      86.332    48.37
m_calc_A            3264       0.012      40.320    22.59
m_calc_grad         1581       0.006       9.264     5.19
m_calc_coeff        1600       0.000       0.240     0.13
m_calc_densmat        64       0.019       1.192     0.67
MIXER                 61       0.002       0.124     0.07
PostSCF                2       4.028       8.056     4.51
DHSCF4                 2       2.442       4.884     2.74
dfscf                  2       2.030       4.060     2.27
overfsm                2       0.066       0.132     0.07
state_analysis         2       0.000       0.000     0.00
siesta_move            2       0.004       0.008     0.00
Analysis               1       0.004       0.004     0.00
optical                1       0.000       0.000     0.00
  
>> End of run:  15-JAN-2018   9:44:59
Job completed
