   220
Energy=    -453.178133127082    
N         -4.798249827        -4.189209544         7.182366907    
H1        -5.021590075        -4.627623842         6.296781257    
H2        -5.206270620        -3.266178050         7.192315334    
H3        -5.211908892        -4.734336806         7.925135525    
CA        -3.326729355        -4.113558310         7.375557336    
HA        -3.130438445        -3.562892519         8.296838491    
CB        -2.717103725        -5.513817423         7.530278158    
HB        -2.849294218        -6.083053825         6.607651210    
HB        -1.649356939        -5.427511823         7.740876371    
OG        -3.352601625        -6.194075540         8.602192255    
HG        -2.913091151        -7.053380970         8.714986357    
C         -2.637138857        -3.374297704         6.228384616    
O         -3.146065664        -3.351184347         5.107548850    
N         -1.462963019        -2.784508270         6.477466057    
H         -1.087488007        -2.816867043         7.416856608    
CA       -0.6056475420        -2.202074647         5.431559427    
HA        -1.238727398        -1.715629187         4.686972875    
CB        0.3012245768        -1.119431837         6.033516840    
HB        0.8114218026        -1.518492050         6.911931355    
HB         1.069022215       -0.8640517987         5.303068018    
CG       -0.3993092157        0.1543406749         6.394673461    
CD       -0.7531769067        0.5449527306         7.640550457    
HD       -0.5665735720       -0.2225621600E-01     8.548343420    
NE        -1.394422895         1.768863303         7.578449439    
HE        -1.751672354         2.252594748         8.396641544    
CE        -1.483731314         2.230927536         6.281736092    
CZ        -2.034121698         3.387434013         5.708691258    
HZ        -2.515315739         4.128718832         6.332568593    
CH        -1.946404014         3.570515860         4.317337863    
HH        -2.362576802         4.459999298         3.858922095    
CZ        -1.309930062         2.600477278         3.520969220    
HZ        -1.235504740         2.752315376         2.451023556    
CE       -0.7671495272         1.439305995         4.106879046    
HE       -0.2780672427        0.7008334234         3.488850888    
CD       -0.8428395347         1.222472759         5.500564701    
C         0.2175534702        -3.274831861         4.698154098    
O         0.6587365042        -4.258755818         5.297954719    
N         0.4380489851        -3.065607859         3.397304775    
H         0.1681653651E-01    -2.245307319         2.974705517    
CA         1.199101640        -3.951955260         2.494498882    
HA         1.816981728        -4.625922462         3.089790771    
CB        0.2648738554        -4.818290683         1.624108020    
HB        0.8813957141        -5.480925529         1.015528878    
CG       -0.6858967409        -5.685955410         2.450273500    
HG        -1.409807823        -5.066349510         2.980801119    
HG        -1.218649504        -6.370645524         1.790782906    
HG       -0.1145230081        -6.271763154         3.170788249    
OG       -0.5325141128        -4.035202518        0.7592277076    
HG       -0.8878787058        -3.290890782         1.274387579    
C          2.137352758        -3.141529584         1.593736595    
O          1.806038105        -2.018237633         1.213092316    
N          3.302408359        -3.692998301         1.245113152    
H          3.518014471        -4.619297090         1.586342793    
CA         4.277015088        -3.069481548        0.3364599942    
HA         4.089659170        -1.996217360        0.2795598389    
CB         5.689659226        -3.256902586        0.9040855352    
HB         5.755744173        -2.717485340         1.848765831    
HB         5.841443378        -4.315678191         1.121082628    
CG         6.813347764        -2.792056642        0.2632181203E-01
CD         7.713894374        -3.598939880       -0.5799253977    
HD         7.731074220        -4.682933673       -0.5004697652    
NE         8.618823800        -2.836303181        -1.292030824    
HE         9.407416564        -3.234205248        -1.793563929    
CE         8.334538100        -1.490855786        -1.196552269    
CZ         8.937343439       -0.3450104825        -1.736419430    
HZ         9.806647805       -0.4341521914        -2.374130584    
CH         8.403786868        0.9175441969        -1.426760759    
HH         8.860858202         1.814939334        -1.826894712    
CZ         7.280421733         1.014827417       -0.5856317517    
HZ         6.882684496         1.990506301       -0.3366843620    
CE         6.676025445       -0.1442588778       -0.5937106594E-01
HE         5.814306494       -0.5614573483E-01    0.5868373362    
CD         7.185681145        -1.428235507       -0.3497777921    
C          4.151913726        -3.640256170        -1.083924348    
O          4.046241793        -4.857154017        -1.260887238    
N          4.176395600        -2.769424987        -2.099117646    
H          4.211424078        -1.779380854        -1.873659781    
CA         3.949840676        -3.134360656        -3.512162011    
HA         3.845011754        -4.218180775        -3.580968925    
CB         2.617629900        -2.537376081        -4.007986411    
HB         2.676117199        -1.447820288        -3.998498055    
HB         2.448455615        -2.867230984        -5.033799759    
CG         1.419287006        -2.992353777        -3.161655381    
HG         1.433119176        -2.476975359        -2.197948623    
HG         1.505460654        -4.064940111        -2.969807273    
CD        0.9012823385E-01    -2.709759011        -3.880099400    
OE       -0.3173878076        -1.526607963        -3.969883363    
OE       -0.5742082814        -3.679394591        -4.323533082    
C          5.142493396        -2.803832507        -4.438150814    
O          4.977329086        -2.624371998        -5.647754857    
N          6.357015983        -2.702272573        -3.881394167    
H          6.435919581        -2.873049840        -2.886317493    
CA         7.599662250        -2.452093229        -4.635043240    
HA         8.450212158        -2.733787594        -4.016341393    
HA         7.610388301        -3.087952896        -5.520982467    
C          7.813524087       -0.9999201963        -5.093904222    
O          8.789114306       -0.7147427623        -5.793462888    
N          6.914394425       -0.8501668286E-01    -4.714458316    
H          6.172065563       -0.4123228391        -4.117029692    
CA         6.961500641         1.344448418        -5.053836462    
HA         8.003966038         1.658688564        -5.142109694    
CB         6.265744161         1.532966217        -6.416221459    
HB         6.763299757        0.9189745298        -7.167516430    
HB         5.227115927         1.206755046        -6.349805088    
CG         6.288390825         2.980039206        -6.882709892    
OD         5.320583884         3.716990844        -6.747463360    
ND         7.391550075         3.438838023        -7.432800174    
HD         7.413682799         4.399465376        -7.743335997    
HD         8.189712659         2.832673926        -7.556306659    
C          6.310126243         2.229392759        -3.969931441    
O          6.849323392         3.288088758        -3.633915922    
N          5.174136022         1.784732214        -3.409292971    
H          4.777800262        0.9271116948        -3.766671761    
CA         4.448623438         2.441656596        -2.307058976    
HA         5.159549927         3.039681852        -1.733085902    
CB         3.390555983         3.406210047        -2.884556801    
HB         3.035717821         4.054784215        -2.081573276    
HB         3.866076300         4.043760107        -3.632431370    
CG         2.173437123         2.706950358        -3.517926636    
HG         2.505311597         2.031877421        -4.307983896    
HG         1.650787457         2.129121492        -2.755966207    
CD         1.210893803         3.744684411        -4.114517513    
HD        0.9571155443         4.494444385        -3.362489184    
HD         1.717922122         4.250945083        -4.938065589    
CE       -0.7766175086E-01     3.111022868        -4.658734862    
HE        0.1822361838         2.256522899        -5.291116698    
HE       -0.5762713196         3.851037227        -5.292395976    
NZ        -1.008215897         2.692010434        -3.574810216    
HZ        -1.232729410         3.465541584        -2.962898088    
HZ       -0.6235990642         1.939762802        -3.007301573    
HZ        -1.877667391         2.350454527        -3.963738393    
C          3.833088514         1.434188610        -1.326223851    
O          3.740173132        0.2380182851        -1.621013875    
N          3.372675214         1.941437909       -0.1827338343    
H          3.492553261         2.931367469       -0.2827891453E-01
CA         2.521534844         1.210188210        0.7616236156    
HA         2.764161020        0.1506821734        0.6957290481    
CB         2.820824116         1.654180291         2.199472038    
HB         2.724405357         2.738931298         2.270311542    
HB         2.068317954         1.219170679         2.857744512    
CG         4.164476873         1.241375758         2.721490604    
CD         5.307481849         1.959348269         2.628871571    
HD         5.392598649         2.937342900         2.163660206    
NE         6.348361361         1.253693517         3.204008717    
HE         7.302323692         1.599057900         3.239947358    
CE         5.924513358        0.4034796415E-01     3.704279711    
CZ         6.581432234        -1.009343773         4.364739855    
HZ         7.643278123       -0.9489996223         4.562054189    
CH         5.841061148        -2.134760355         4.768023950    
HH         6.332296185        -2.953689342         5.280375543    
CZ         4.459367782        -2.194968076         4.507399715    
HZ         3.891548776        -3.062127393         4.822875685    
CE         3.812310232        -1.135769976         3.840308375    
HE         2.751858200        -1.188964194         3.644966104    
CD         4.526082942        0.7286761717E-02     3.417965282    
C          1.029789860         1.368499364        0.4178235982    
O         0.5836739498         2.444502672        0.7173546718E-02
N         0.2580174410        0.2974058875        0.6162747203    
H         0.7200201073       -0.5542894442        0.9217546948    
CA        -1.179517297        0.1984415400        0.3033970324    
HA        -1.610489984         1.197511755        0.2314552037    
CB        -1.375610487       -0.5106989959        -1.051250310    
HB       -0.9251829881        -1.503075460        -1.002304238    
CG        -2.841215077       -0.6520342489        -1.464709738    
HG        -3.331418670        0.3221618243        -1.450842064    
HG        -2.900738893        -1.069754671        -2.470418190    
HG        -3.360853172        -1.327952555       -0.7860844878    
OG       -0.7466136453        0.2169086101        -2.084555143    
HG       -0.6009550484       -0.4358803750        -2.813472217    
C         -1.912657386       -0.5688569415         1.407792486    
O         -1.462861904        -1.638360032         1.825473193    
N         -3.049066053       -0.5009094694E-01     1.878858714    
H         -3.373066721        0.8298678663         1.501807420    
CA        -3.902712798       -0.7164071779         2.871816967    
HA        -3.269360004        -1.226819544         3.597887632    
CB        -4.716019426        0.3372978262         3.633471318    
HB        -4.022908237         1.020322131         4.126950210    
HB        -5.296732252        0.9215300242         2.917493908    
CG        -5.653360365       -0.2054090476         4.670461280    
CD        -6.958483381       -0.5016140016         4.470943359    
HD        -7.487395779       -0.3801450800         3.528976359    
NE        -7.515169232       -0.9723546784         5.645053593    
HE        -8.490758519        -1.243205649         5.729535841    
CE        -6.592834393       -0.9964012908         6.668809883    
CZ        -6.667255831        -1.373925625         8.018449593    
HZ        -7.604120864        -1.719781148         8.436534402    
CH        -5.517634355        -1.277152140         8.822293657    
HH        -5.561995629        -1.547175562         9.871622583    
CZ        -4.310424283       -0.8200361763         8.262411307    
HZ        -3.427176211       -0.7368520308         8.885338131    
CE        -4.247061745       -0.4503277947         6.903982193    
HE        -3.317540425       -0.9051356257E-01     6.486261543    
CD        -5.385660279       -0.5203460347         6.072514646    
C         -4.813140466        -1.765796115         2.211488472    
O         -5.473075853        -1.475076591         1.207491478    
N         -4.857264385        -2.979984445         2.778085270    
H         -4.289510404        -3.129331341         3.607683207    
CA        -5.641164549        -4.131075301         2.283953098    
HA        -6.438953813        -3.765962002         1.633300467    
CB        -4.741742740        -5.072555520         1.454041474    
HB        -5.344156601        -5.913123194         1.104596153    
HB        -3.942913849        -5.464501286         2.086544837    
CG        -4.120834669        -4.377183979        0.2310574084    
HG        -3.400232502        -3.632067767        0.5699078662    
HG        -4.907342450        -3.875217518       -0.3345041455    
CD        -3.406713977        -5.369353432       -0.6947335304    
HD        -4.137533420        -6.061811086        -1.116941440    
HD        -2.664031684        -5.931747533       -0.1271246170    
CE        -2.712334574        -4.592664006        -1.819400065    
HE        -3.454881022        -3.976949474        -2.336382006    
HE        -1.971719485        -3.922902996        -1.371450338    
NZ        -2.045068046        -5.495118247        -2.791789835    
HZ        -1.368105104        -6.093352349        -2.338635676    
HZ        -2.712973626        -6.079596562        -3.275937826    
HZ        -1.546982007        -4.942030097        -3.493047774    
C         -6.328539611        -4.894730221         3.425045628    
O         -5.896757381        -4.853528335         4.578247857    
N         -7.395000893        -5.616026973         3.119619589    
HN        -7.726862118        -5.644274896         2.168812070    
HN        -7.860925852        -6.132150914         3.848494260    
   220
Energy=    -452.448268092709    
N         -4.778695245        -4.269447177         7.215346723    
H1        -5.007227879        -4.688112751         6.321557468    
H2        -5.186986485        -3.347089794         7.248591084    
H3        -5.187510407        -4.831339327         7.948236238    
CA        -3.306008145        -4.197437819         7.401059611    
HA        -3.104118675        -3.667795847         8.333388768    
CB        -2.694901427        -5.600545813         7.519947422    
HB        -2.832806929        -6.148689361         6.585459352    
HB        -1.625854420        -5.518517000         7.725598671    
OG        -3.323233081        -6.305367466         8.580154828    
HG        -2.882724991        -7.166813192         8.670477879    
C         -2.623995257        -3.431912092         6.266668025    
O         -3.140575922        -3.382899986         5.150181032    
N         -1.448002536        -2.848036543         6.521145333    
H         -1.065924514        -2.901880236         7.456868010    
CA       -0.5981236083        -2.242187997         5.482492263    
HA        -1.236498031        -1.734362766         4.756876136    
CB        0.3189033549        -1.178797222         6.102980463    
HB        0.8306340364        -1.599580114         6.970289005    
HB         1.084928681       -0.9126708379         5.374453805    
CG       -0.3729683342        0.9080127073E-01     6.494014109    
CD       -0.7188302737        0.4573204222         7.749407721    
HD       -0.5301131177       -0.1291219980         8.644451099    
NE        -1.356537577         1.684170453         7.715370336    
HE        -1.708349196         2.152191880         8.544978215    
CE        -1.451873935         2.172191302         6.428624398    
CZ        -2.002862460         3.341049318         5.881830180    
HZ        -2.479332598         4.070566078         6.522969547    
CH        -1.922115976         3.551793262         4.493984880    
HH        -2.339082882         4.450971688         4.055634197    
CZ        -1.291255344         2.596995327         3.675070634    
HZ        -1.222112938         2.770234338         2.608031472    
CE       -0.7472652727         1.423442829         4.234615928    
HE       -0.2617367541        0.6972518494         3.599229750    
CD       -0.8172311040         1.178327595         5.623974442    
C         0.2129210360        -3.298814535         4.713286479    
O         0.6550227001        -4.300371646         5.282515832    
N         0.4206412449        -3.056601115         3.416136563    
H        -0.1442319722E-03    -2.222909905         3.020233390    
CA         1.160660375        -3.926361132         2.480723115    
HA         1.778786062        -4.621689149         3.050650930    
CB        0.2069675213        -4.761062138         1.600554251    
HB        0.8090148731        -5.414520387        0.9680661797    
CG       -0.7437453848        -5.639091296         2.415652091    
HG        -1.453531749        -5.025357106         2.971475914    
HG        -1.292876094        -6.299780604         1.745157710    
HG       -0.1704853933        -6.250312475         3.113188641    
OG       -0.5916046559        -3.947843466        0.7654625796    
HG       -0.9430426742        -3.220743143         1.307460946    
C          2.096396871        -3.103450095         1.588710610    
O          1.774953434        -1.966288262         1.241100590    
N          3.247895878        -3.663470655         1.210089117    
H          3.451896812        -4.601856905         1.524424304    
CA         4.227347831        -3.031274633        0.3132478935    
HA         4.047673598        -1.955889906        0.2743246126    
CB         5.636656359        -3.240515514        0.8816207921    
HB         5.703822438        -2.716124254         1.834422155    
HB         5.776086893        -4.303781627         1.084602645    
CG         6.772596662        -2.776136903        0.1913109037E-01
CD         7.690995857        -3.583062816       -0.5597661466    
HD         7.712595715        -4.666158690       -0.4699782055    
NE         8.611072066        -2.821411977        -1.253239864    
HE         9.413791775        -3.219269418        -1.731857118    
CE         8.322386933        -1.476283828        -1.169129420    
CZ         8.940524401       -0.3309833279        -1.692436189    
HZ         9.830395554       -0.4204702429        -2.301070181    
CH         8.393877938        0.9313205962        -1.405854700    
HH         8.861944290         1.828286889        -1.793982146    
CZ         7.240554524         1.028727726       -0.6063806269    
HZ         6.828989529         2.004124867       -0.3793195632    
CE         6.623610822       -0.1297549856       -0.9361665386E-01
HE         5.740861460       -0.4100844014E-01    0.5233053095    
CD         7.147920411        -1.413337540       -0.3581975767    
C          4.101266999        -3.578059188        -1.116094058    
O          4.000194560        -4.791850404        -1.315015172    
N          4.120637147        -2.688843170        -2.114727467    
H          4.149065798        -1.702781204        -1.869931373    
CA         3.897659198        -3.026133486        -3.534802292    
HA         3.766104661        -4.105805108        -3.621309876    
CB         2.584342526        -2.388423455        -4.031742757    
HB         2.669468130        -1.300939615        -4.004009052    
HB         2.414268619        -2.697750544        -5.063771845    
CG         1.370528661        -2.828121097        -3.198680557    
HG         1.402464376        -2.343880667        -2.219459643    
HG         1.420992609        -3.908371658        -3.040028976    
CD        0.4873693853E-01    -2.477816828        -3.900015584    
OE       -0.3089719087        -1.276377731        -3.962376906    
OE       -0.6647380511        -3.410645207        -4.344931010    
C          5.109871879        -2.711053257        -4.440668112    
O          4.963503933        -2.490447018        -5.645694604    
N          6.320671035        -2.664521980        -3.868098703    
H          6.380800316        -2.864482094        -2.877172315    
CA         7.581808020        -2.431067801        -4.596268791    
HA         8.413207354        -2.765776933        -3.977844475    
HA         7.582138818        -3.034115141        -5.504909321    
C          7.852523041       -0.9716423761        -4.999442226    
O          8.864603848       -0.6906725633        -5.646822067    
N          6.960373442       -0.4610884316E-01    -4.629789213    
H          6.187650743       -0.3744132388        -4.073671307    
CA         7.049983371         1.391161659        -4.926806680    
HA         8.100042663         1.692049066        -4.934517052    
CB         6.450276204         1.619723969        -6.328695790    
HB         6.988302801         1.014523748        -7.058872731    
HB         5.405241931         1.307453870        -6.338283089    
CG         6.522591802         3.075059706        -6.763591679    
OD         5.552539504         3.818327978        -6.694732761    
ND         7.670144234         3.532706995        -7.215141950    
HD         7.725195454         4.498519013        -7.504720540    
HD         8.470599352         2.921130352        -7.285271985    
C          6.331399838         2.263253398        -3.873864399    
O          6.820660327         3.343567356        -3.530600752    
N          5.187870855         1.788756545        -3.354803937    
H          4.842717135        0.9085720037        -3.708759122    
CA         4.359292444         2.458837294        -2.336095924    
HA         4.994708897         3.135426982        -1.760389637    
CB         3.278474950         3.312392148        -3.033472096    
HB         2.759239417         3.910112615        -2.282145501    
HB         3.772105259         4.003495572        -3.719414214    
CG         2.236783751         2.490014381        -3.815346898    
HG         2.742255722         1.861517126        -4.549732620    
HG         1.686081359         1.852236559        -3.123496834    
CD         1.253485956         3.414285748        -4.549986344    
HD        0.7309004486         4.049314998        -3.831883517    
HD         1.821376357         4.059265143        -5.223178770    
CE        0.2339042139         2.631640442        -5.391059398    
HE        0.7699578819         1.908633319        -6.013674352    
HE       -0.2691673547         3.334982130        -6.061929082    
NZ       -0.7827218985         1.938079170        -4.555372853    
HZ        -1.322048026         2.597272019        -4.009236635    
HZ       -0.3567250498         1.279096761        -3.914733853    
HZ        -1.430255001         1.418487680        -5.134439710    
C          3.749117108         1.471502533        -1.331920326    
O          3.673882320        0.2674037100        -1.596620849    
N          3.281754074         2.000940240       -0.2010160313    
H          3.383175898         2.996941807       -0.7458853610E-01
CA         2.469042698         1.276441504        0.7830603901    
HA         2.704588714        0.2154732261        0.7144751862    
CB         2.824785200         1.727970080         2.205596125    
HB         2.756515725         2.815384437         2.267555563    
HB         2.082168621         1.319071413         2.891541049    
CG         4.172027725         1.287407001         2.693446183    
CD         5.326696036         1.982049823         2.573459082    
HD         5.420617282         2.957617680         2.104835415    
NE         6.365461719         1.257232199         3.128346472    
HE         7.326728441         1.583250030         3.141965756    
CE         5.928332130        0.5418771871E-01     3.642093483    
CZ         6.577879929        -1.005717139         4.293515969    
HZ         7.644451733       -0.9654083426         4.469173181    
CH         5.823999475        -2.114969056         4.716207356    
HH         6.309466528        -2.941440028         5.221886606    
CZ         4.436548909        -2.149687376         4.482698879    
HZ         3.858644439        -3.004896698         4.812150739    
CE         3.796747062        -1.080491077         3.824574899    
HE         2.731674431        -1.114345211         3.649949962    
CD         4.523936651        0.4750406420E-01     3.384563855    
C         0.9655063035         1.438931675        0.5028797050    
O         0.5035944877         2.526493442        0.1435271603    
N         0.2038174675        0.3602706674        0.7028544701    
H         0.6773544453       -0.4961692582        0.9754315342    
CA        -1.239102756        0.2611781032        0.4140928405    
HA        -1.673047738         1.259734863        0.3545394297    
CB        -1.455673557       -0.4399192514       -0.9415443438    
HB        -1.016194188        -1.437718586       -0.9003739078    
CG        -2.925808727       -0.5632894479        -1.345147155    
HG        -3.402042056        0.4179372030        -1.331526709    
HG        -2.997917896       -0.9835324413        -2.349038701    
HG        -3.450576151        -1.228600428       -0.6602621937    
OG       -0.8245700246        0.2835835694        -1.975077066    
HG       -0.6633752889       -0.3672710239        -2.700530825    
C         -1.955692675       -0.5160719752         1.521227216    
O         -1.502863129        -1.592495468         1.916790491    
N         -3.084614056       -0.2493936191E-02     2.014899140    
H         -3.411634695        0.8839303681         1.656007765    
CA        -3.930032721       -0.6885037297         3.001195952    
HA        -3.291007312        -1.217122630         3.709065728    
CB        -4.732625551        0.3493450343         3.795038050    
HB        -4.032683674         1.020887641         4.294672837    
HB        -5.321674453        0.9493992107         3.099241895    
CG        -5.656780064       -0.2161261224         4.831564137    
CD        -6.965579128       -0.5035347525         4.643790648    
HD        -7.507796333       -0.3567342652         3.713054727    
NE        -7.506336001        -1.002846771         5.813553158    
HE        -8.481375270        -1.273311064         5.905433787    
CE        -6.568882199        -1.056462584         6.822369389    
CZ        -6.624135882        -1.469763215         8.162399591    
HZ        -7.555604290        -1.824352555         8.585196527    
CH        -5.462256677        -1.397542420         8.951047245    
HH        -5.491624281        -1.695549207         9.993298685    
CZ        -4.262295746       -0.9284533153         8.385512047    
HZ        -3.369621407       -0.8641185596         8.997116579    
CE        -4.218168230       -0.5228380004         7.036599531    
HE        -3.293911684       -0.1543853534         6.614599910    
CD        -5.369312421       -0.5679825853         6.220823991    
C         -4.849117830        -1.719761794         2.324258859    
O         -5.529827089        -1.398623313         1.343686319    
N         -4.875632018        -2.953281403         2.848641460    
H         -4.292022278        -3.127895296         3.662173141    
CA        -5.660650110        -4.091735996         2.327236234    
HA        -6.469785397        -3.709427090         1.700925627    
CB        -4.769015115        -4.999717476         1.452435920    
HB        -5.373162017        -5.829745718         1.081478203    
HB        -3.960765799        -5.410833787         2.060203733    
CG        -4.166261675        -4.259776942        0.2464945370    
HG        -3.442919255        -3.525443152        0.6023911397    
HG        -4.961449920        -3.739701555       -0.2897945458    
CD        -3.462595263        -5.215876355       -0.7246792631    
HD        -4.198150677        -5.893328523        -1.162719595    
HD        -2.712354141        -5.798049504       -0.1876788068    
CE        -2.782725077        -4.397831637        -1.829156352    
HE        -3.531718839        -3.762135449        -2.311619115    
HE        -2.034627604        -3.746751890        -1.366329391    
NZ        -2.130782688        -5.263139697        -2.845134505    
HZ        -1.448594678        -5.879291425        -2.424879260    
HZ        -2.806674225        -5.828437297        -3.340961030    
HZ        -1.641824108        -4.685591463        -3.533071467    
C         -6.327909387        -4.897105602         3.451561044    
O         -5.883920170        -4.887234220         4.600840397    
N         -7.391192857        -5.618575547         3.135627966    
HN        -7.733451048        -5.620500901         2.188094757    
HN        -7.844191259        -6.161365393         3.853194089    
   220
Energy=    -454.473009584853    
N         -4.768802962        -4.382740026         7.184742142    
H1        -4.978906509        -4.792069144         6.282131981    
H2        -5.198180081        -3.470497983         7.228283155    
H3        -5.172135080        -4.965139713         7.904551925    
CA        -3.299993410        -4.280528727         7.386936085    