   220
 Energy=    -454.473009584853
N            -4.7688029620       -4.3827400260        7.1847421420
H1           -4.9789065090       -4.7920691440        6.2821319810
H2           -5.1981800810       -3.4704979830        7.2282831550
H3           -5.1721350800       -4.9651397130        7.9045519250
CA           -3.2999934100       -4.2805287270        7.3869360850
HA           -3.1193263990       -3.7583900220        8.3278086830
CB           -2.6591840390       -5.6712429900        7.4947698810
HB           -2.7751087960       -6.2103143530        6.5520543920
HB           -1.5944258940       -5.5683217960        7.7128993720
OG           -3.2827642180       -6.4032568660        8.5392333820
HG           -2.8242247660       -7.2558665160        8.6234576440
C            -2.6236363640       -3.4862507760        6.2690665120
O            -3.1316362130       -3.4322543390        5.1489378840
N            -1.4612244040       -2.8831090200        6.5405376340
H            -1.0858269090       -2.9403235750        7.4787549250
CA           -0.6128018159       -2.2550195490        5.5139102340
HA           -1.2520119370       -1.7328097990        4.7995001860
CB            0.3052824532       -1.2048610430        6.1549817980
HB            0.8130374556       -1.6411202580        7.0169653610
HB            1.0744303350       -0.9286632528        5.4335128250
CG           -0.3856958658        0.0593304004        6.5641762360
CD           -0.7401426540        0.4034543544        7.8235022990
HD           -0.5591927292       -0.1996160773        8.7090456480
NE           -1.3778267030        1.6306316470        7.8067888200
HE           -1.7361024200        2.0835145950        8.6420254270
CE           -1.4641524060        2.1414475940        6.5282903000
CZ           -2.0118658460        3.3197018080        5.9987172620
HZ           -2.4942874750        4.0368466900        6.6493065940
CH           -1.9195477190        3.5563468220        4.6158227590
HH           -2.3335940890        4.4632467380        4.1907898820
CZ           -1.2798215380        2.6180594370        3.7848314970
HZ           -1.2006034220        2.8122207100        2.7221588840
CE           -0.7390819104        1.4347300120        4.3267654170
HE           -0.2454899507        0.7221225184        3.6819235360
CD           -0.8220530956        1.1630560400        5.7106353730
C             0.1971351385       -3.2962219620        4.7233292710
O             0.6423901445       -4.3066806050        5.2742166350
N             0.3999252058       -3.0324304430        3.4294960680
H            -0.0226087549       -2.1935047010        3.0469507200
CA            1.1363814970       -3.8900898310        2.4807015550
HA            1.7444141120       -4.6021623290        3.0406757060
CB            0.1813615127       -4.7015103470        1.5803083620
HB            0.7822858657       -5.3535906000        0.9453102643
CG           -0.7877787670       -5.5791790960        2.3737896090
HG           -1.4929150570       -4.9645361110        2.9345083170
HG           -1.3412534030       -6.2205944900        1.6881492740
HG           -0.2284776457       -6.2098327020        3.0653191080
OG           -0.5991428519       -3.8692446870        0.7472731261
HG           -0.9521714550       -3.1474310820        1.2958285630
C             2.0860786480       -3.0611869220        1.6098012400
O             1.7691210940       -1.9228157850        1.2598518290
N             3.2434060690       -3.6231424830        1.2511426760
H             3.4391083380       -4.5618281990        1.5697299920
CA            4.2379912750       -2.9996279440        0.3659722431
HA            4.0597210130       -1.9244765100        0.3164955574
CB            5.6389003850       -3.2075866200        0.9550971902
HB            5.6966726580       -2.6690083530        1.9000487230
HB            5.7693615660       -4.2683533490        1.1762803080
CG            6.7892010960       -2.7635108250        0.1003348950
CD            7.7321575710       -3.5812302330       -0.4211417469
HD            7.7660878240       -4.6589980530       -0.2838886414
NE            8.6576104880       -2.8375099810       -1.1267895450
HE            9.4748203860       -3.2447492120       -1.5718751830
CE            8.3496965280       -1.4942395100       -1.1073592730
CZ            8.9648109720       -0.3641153964       -1.6660642520
HZ            9.8711773730       -0.4671077947       -2.2476434260
CH            8.3924772280        0.9010991749       -1.4517279540
HH            8.8573659950        1.7868093790       -1.8684622010
CZ            7.2167828420        1.0161038170       -0.6881123845
HZ            6.7844801070        1.9940453050       -0.5173906353
CE            6.6040771280       -0.1275546590       -0.1383950628
HE            5.7046492940       -0.0245775546        0.4515258775
CD            7.1542640080       -1.4132974350       -0.3293032911
C             4.1328698940       -3.5576270040       -1.0601342990
O             4.0303250720       -4.7721687810       -1.2536634480
N             4.1700200260       -2.6739961940       -2.0618245260
H             4.1905903140       -1.6872980410       -1.8183781970
CA            3.9372547950       -3.0111611740       -3.4793031740
HA            3.7373482830       -4.0808477140       -3.5589675680
CB            2.6720874120       -2.2898516800       -3.9849972730
HB            2.8384513590       -1.2115571790       -3.9792866500
HB            2.4745526090       -2.6045128650       -5.0104881240
CG            1.4333591500       -2.6197049690       -3.1380242230
HG            1.5266363090       -2.1600580110       -2.1510874020
HG            1.3742942220       -3.7024604930       -3.0007658240
CD            0.1488646922       -2.1159125040       -3.8093248740
OE           -0.0755478607       -0.8813412221       -3.8400959630
OE           -0.6630061055       -2.9554567880       -4.2699926820
C             5.1692530550       -2.7697790600       -4.3806527900
O             5.0431826680       -2.6162790140       -5.5983013640
N             6.3717168130       -2.7025432000       -3.7924020120
H             6.4166744860       -2.8589438980       -2.7929287900
CA            7.6399608820       -2.4670188160       -4.5069763560
HA            8.4675519460       -2.7643997010       -3.8647427070
HA            7.6678749600       -3.0960703670       -5.3973565670
C             7.8826609520       -1.0127213680       -4.9465763540
O             8.8843752020       -0.7283488262       -5.6083504480
N             6.9736478420       -0.0965011340       -4.5940349160
H             6.2168359790       -0.4258159097       -4.0172322930
CA            7.0252207040        1.3337729670       -4.9296939260
HA            8.0663805760        1.6641324320       -4.9385661670
CB            6.4284287270        1.5067013010       -6.3409678360
HB            6.9907391530        0.9007256553       -7.0519283210
HB            5.3941126240        1.1604905150       -6.3490834860
CG            6.4564494800        2.9518383520       -6.8134150030
OD            5.4619654740        3.6641137570       -6.7709684620
ND            7.5918997240        3.4351834540       -7.2687236380
HD            7.6175070360        4.3944293910       -7.5831604960
HD            8.4125230680        2.8487593900       -7.3172268680
C             6.2719865750        2.2128281760       -3.9066593850
O             6.7266983580        3.3159374700       -3.5896133930
N             5.1366114260        1.7206820510       -3.3852192380
H             4.8212253270        0.8204474119       -3.7152887020
CA            4.2664610770        2.4053940600       -2.4115963830
HA            4.8656709800        3.1365298880       -1.8643597610
CB            3.1620765330        3.1792046120       -3.1625767890
HB            2.5649626140        3.7364624890       -2.4384377760
HB            3.6438731330        3.9071641410       -3.8181015600
CG            2.2199491190        2.3000679340       -4.0095366050
HG            2.8024615350        1.7343080190       -4.7376609240
HG            1.6860447420        1.6037183460       -3.3621539700
CD            1.2095123290        3.1804921690       -4.7619971670
HD            0.5679717926        3.6989844790       -4.0468514530
HD            1.7620002950        3.9350100240       -5.3251281220
CE            0.3446309799        2.4002670680       -5.7637836560
HE            0.9953885078        1.8133151230       -6.4189758670
HE           -0.1805534413        3.1285840020       -6.3893554440
NZ           -0.6543806226        1.5180719180       -5.1050449720
HZ           -1.2058570150        2.0239009220       -4.4249455800
HZ           -0.2177740203        0.7237148739       -4.6337598110
HZ           -1.2916453840        1.1275732180       -5.7863653150
C             3.6844947240        1.4509177840       -1.3606003210
O             3.6276632350        0.2365876808       -1.5748161630
N             3.2308649370        2.0179408520       -0.2416720389
H             3.3188293520        3.0197519390       -0.1580821767
CA            2.4523546100        1.3239666050        0.7915127619
HA            2.6689540810        0.2585570305        0.7363527652
CB            2.8677661490        1.8010135550        2.1893365880
HB            2.8423646640        2.8915546620        2.2217511630
HB            2.1290810590        1.4417632070        2.9070105110
CG            4.2086018240        1.3225214110        2.6574101930
CD            5.3832811150        1.9758218880        2.5051649470
HD            5.5014143540        2.9386323530        2.0160585260
NE            6.4058617050        1.2294818400        3.0617123240
HE            7.3772241830        1.5241672390        3.0548896670
CE            5.9368949100        0.0544656696        3.6111737660
CZ            6.5599503950       -1.0085940910        4.2830923250
HZ            7.6291125730       -0.9976601619        4.4467922020
CH            5.7762645440       -2.0825441070        4.7414741210
HH            6.2410943930       -2.9109603790        5.2630922020
CZ            4.3861578560       -2.0802923390        4.5211742060
HZ            3.7856648760       -2.9090950470        4.8766787510
CE            3.7727594360       -1.0079850720        3.8431628940
HE            2.7052398290       -1.0132929180        3.6790607240
CD            4.5300116470        0.0862893176        3.3695634250
C             0.9423304315        1.5086212910        0.5718967571
O             0.4815045370        2.6152366290        0.2742830686
N             0.1749524439        0.4305105081        0.7565880777
H             0.6441523452       -0.4405972498        0.9881497421
CA           -1.2780479610        0.3659310993        0.5070687725
HA           -1.6977086760        1.3722388290        0.5202780287
CB           -1.5419083690       -0.2424660095       -0.8851862873
HB           -1.0734611610       -1.2266867840       -0.9385070122
CG           -3.0246540550       -0.3811188875       -1.2363329260
HG           -3.5276751130        0.5805374548       -1.1269976990
HG           -3.1278056500       -0.7252652956       -2.2661939310
HG           -3.4999466570       -1.1133043250       -0.5846714325
OG           -0.9779679912        0.5810168971       -1.8823858980
HG           -0.6564965607       -0.0201252231       -2.5929223250
C            -1.9787620510       -0.4592494348        1.5894416900
O            -1.5203793860       -1.5502621770        1.9350598900
N            -3.1009715260        0.0341771144        2.1183357820
H            -3.4304187200        0.9348459969        1.7993670640
CA           -3.9362916650       -0.6870354744        3.0878196160
HA           -3.2902253800       -1.2366681800        3.7725708420
CB           -4.7354346280        0.3229248757        3.9205667020
HB           -4.0331769420        0.9776825043        4.4389867690
HB           -5.3279917100        0.9459896218        3.2483552720
CG           -5.6553061040       -0.2768445911        4.9414955340
CD           -6.9606932280       -0.5734614492        4.7443628820
HD           -7.5028504080       -0.4101412124        3.8163355310
NE           -7.4979635770       -1.1070317710        5.9005077010
HE           -8.4701708630       -1.3902459030        5.9838196310
CE           -6.5615788000       -1.1753489900        6.9093833150
CZ           -6.6139783590       -1.6235769390        8.2382176720
HZ           -7.5417948950       -1.9998817970        8.6501557340
CH           -5.4540769340       -1.5583744430        9.0303602510
HH           -5.4813099010       -1.8839635480       10.0643685300
CZ           -4.2591481550       -1.0598287320        8.4795802510
HZ           -3.3683461310       -1.0005049410        9.0944066640
CE           -4.2178085180       -0.6191306960        7.1416427990
HE           -3.2975613850       -0.2285896803        6.7308051520
CD           -5.3667359260       -0.6582219512        6.3225795120
C            -4.8584888960       -1.6977448150        2.3844973110
O            -5.5536744000       -1.3439531380        1.4255828350
N            -4.8706601640       -2.9507196350        2.8615332540
H            -4.2781172830       -3.1518073040        3.6624012980
CA           -5.6490062040       -4.0755338950        2.3013035650
HA           -6.4689696440       -3.6763661310        1.7000918180
CB           -4.7571160540       -4.9358488910        1.3792389360
HB           -5.3580809120       -5.7508027410        0.9715794130
HB           -3.9432052860       -5.3703847030        1.9624317110
CG           -4.1653607230       -4.1340966190        0.2079553757
HG           -3.4483172820       -3.4108486140        0.5974422087
HG           -4.9673862950       -3.5962335450       -0.2998592818
CD           -3.4532146900       -5.0305961230       -0.8123709436
HD           -4.1818534650       -5.6900237080       -1.2878066870
HD           -2.6966827410       -5.6331765920       -0.3074226560
CE           -2.7828155190       -4.1422370370       -1.8673963810
HE           -3.5400006980       -3.4918779220       -2.3163992780
HE           -2.0465597730       -3.5066298940       -1.3657621000
NZ           -2.1127842000       -4.9368484350       -2.9279565970
HZ           -1.4247910390       -5.5674765400       -2.5398672760
HZ           -2.7775229210       -5.4802468770       -3.4618979000
HZ           -1.6274563400       -4.3108789820       -3.5750330500
C            -6.2955975520       -4.9345847830        3.3977819260
O            -5.8464645950       -4.9591287910        4.5449137260
N            -7.3475806940       -5.6626455130        3.0598888510
HN           -7.6945407950       -5.6353685280        2.1144596370
HN           -7.7871863760       -6.2398750870        3.7586603910
   220
 Energy=    -452.448268092709
N            -4.7786952450       -4.2694471770        7.2153467230
H1           -5.0072278790       -4.6881127510        6.3215574680
H2           -5.1869864850       -3.3470897940        7.2485910840
H3           -5.1875104070       -4.8313393270        7.9482362380
CA           -3.3060081450       -4.1974378190        7.4010596110
HA           -3.1041186750       -3.6677958470        8.3333887680
CB           -2.6949014270       -5.6005458130        7.5199474220
HB           -2.8328069290       -6.1486893610        6.5854593520
HB           -1.6258544200       -5.5185170000        7.7255986710
OG           -3.3232330810       -6.3053674660        8.5801548280
HG           -2.8827249910       -7.1668131920        8.6704778790
C            -2.6239952570       -3.4319120920        6.2666680250
O            -3.1405759220       -3.3828999860        5.1501810320
N            -1.4480025360       -2.8480365430        6.5211453330
H            -1.0659245140       -2.9018802360        7.4568680100
CA           -0.5981236083       -2.2421879970        5.4824922630
HA           -1.2364980310       -1.7343627660        4.7568761360
CB            0.3189033549       -1.1787972220        6.1029804630
HB            0.8306340364       -1.5995801140        6.9702890050
HB            1.0849286810       -0.9126708379        5.3744538050
CG           -0.3729683342        0.0908012707        6.4940141090
CD           -0.7188302737        0.4573204222        7.7494077210
HD           -0.5301131177       -0.1291219980        8.6444510990
NE           -1.3565375770        1.6841704530        7.7153703360
HE           -1.7083491960        2.1521918800        8.5449782150
CE           -1.4518739350        2.1721913020        6.4286243980
CZ           -2.0028624600        3.3410493180        5.8818301800
HZ           -2.4793325980        4.0705660780        6.5229695470
CH           -1.9221159760        3.5517932620        4.4939848800
HH           -2.3390828820        4.4509716880        4.0556341970
CZ           -1.2912553440        2.5969953270        3.6750706340
HZ           -1.2221129380        2.7702343380        2.6080314720
CE           -0.7472652727        1.4234428290        4.2346159280
HE           -0.2617367541        0.6972518494        3.5992297500
CD           -0.8172311040        1.1783275950        5.6239744420
C             0.2129210360       -3.2988145350        4.7132864790
O             0.6550227001       -4.3003716460        5.2825158320
N             0.4206412449       -3.0566011150        3.4161365630
H            -0.0001442320       -2.2229099050        3.0202333900
CA            1.1606603750       -3.9263611320        2.4807231150
HA            1.7787860620       -4.6216891490        3.0506509300
CB            0.2069675213       -4.7610621380        1.6005542510
HB            0.8090148731       -5.4145203870        0.9680661797
CG           -0.7437453848       -5.6390912960        2.4156520910
HG           -1.4535317490       -5.0253571060        2.9714759140
HG           -1.2928760940       -6.2997806040        1.7451577100
HG           -0.1704853933       -6.2503124750        3.1131886410
OG           -0.5916046559       -3.9478434660        0.7654625796
HG           -0.9430426742       -3.2207431430        1.3074609460
C             2.0963968710       -3.1034500950        1.5887106100
O             1.7749534340       -1.9662882620        1.2411005900
N             3.2478958780       -3.6634706550        1.2100891170
H             3.4518968120       -4.6018569050        1.5244243040
CA            4.2273478310       -3.0312746330        0.3132478935
HA            4.0476735980       -1.9558899060        0.2743246126
CB            5.6366563590       -3.2405155140        0.8816207921
HB            5.7038224380       -2.7161242540        1.8344221550
HB            5.7760868930       -4.3037816270        1.0846026450
CG            6.7725966620       -2.7761369030        0.0191310904
CD            7.6909958570       -3.5830628160       -0.5597661466
HD            7.7125957150       -4.6661586900       -0.4699782055
NE            8.6110720660       -2.8214119770       -1.2532398640
HE            9.4137917750       -3.2192694180       -1.7318571180
CE            8.3223869330       -1.4762838280       -1.1691294200
CZ            8.9405244010       -0.3309833279       -1.6924361890
HZ            9.8303955540       -0.4204702429       -2.3010701810
CH            8.3938779380        0.9313205962       -1.4058547000
HH            8.8619442900        1.8282868890       -1.7939821460
CZ            7.2405545240        1.0287277260       -0.6063806269
HZ            6.8289895290        2.0041248670       -0.3793195632
CE            6.6236108220       -0.1297549856       -0.0936166539
HE            5.7408614600       -0.0410084401        0.5233053095
CD            7.1479204110       -1.4133375400       -0.3581975767
C             4.1012669990       -3.5780591880       -1.1160940580
O             4.0001945600       -4.7918504040       -1.3150151720
N             4.1206371470       -2.6888431700       -2.1147274670
H             4.1490657980       -1.7027812040       -1.8699313730
CA            3.8976591980       -3.0261334860       -3.5348022920
HA            3.7661046610       -4.1058051080       -3.6213098760
CB            2.5843425260       -2.3884234550       -4.0317427570
HB            2.6694681300       -1.3009396150       -4.0040090520
HB            2.4142686190       -2.6977505440       -5.0637718450
CG            1.3705286610       -2.8281210970       -3.1986805570
HG            1.4024643760       -2.3438806670       -2.2194596430
HG            1.4209926090       -3.9083716580       -3.0400289760
CD            0.0487369385       -2.4778168280       -3.9000155840
OE           -0.3089719087       -1.2763777310       -3.9623769060
OE           -0.6647380511       -3.4106452070       -4.3449310100
C             5.1098718790       -2.7110532570       -4.4406681120
O             4.9635039330       -2.4904470180       -5.6456946040
N             6.3206710350       -2.6645219800       -3.8680987030
H             6.3808003160       -2.8644820940       -2.8771723150
CA            7.5818080200       -2.4310678010       -4.5962687910
HA            8.4132073540       -2.7657769330       -3.9778444750
HA            7.5821388180       -3.0341151410       -5.5049093210
C             7.8525230410       -0.9716423761       -4.9994422260
O             8.8646038480       -0.6906725633       -5.6468220670
N             6.9603734420       -0.0461088432       -4.6297892130
H             6.1876507430       -0.3744132388       -4.0736713070
CA            7.0499833710        1.3911616590       -4.9268066800
HA            8.1000426630        1.6920490660       -4.9345170520
CB            6.4502762040        1.6197239690       -6.3286957900
HB            6.9883028010        1.0145237480       -7.0588727310
HB            5.4052419310        1.3074538700       -6.3382830890
CG            6.5225918020        3.0750597060       -6.7635916790
OD            5.5525395040        3.8183279780       -6.6947327610
ND            7.6701442340        3.5327069950       -7.2151419500
HD            7.7251954540        4.4985190130       -7.5047205400
HD            8.4705993520        2.9211303520       -7.2852719850
C             6.3313998380        2.2632533980       -3.8738643990
O             6.8206603270        3.3435673560       -3.5306007520
N             5.1878708550        1.7887565450       -3.3548039370
H             4.8427171350        0.9085720037       -3.7087591220
CA            4.3592924440        2.4588372940       -2.3360959240
HA            4.9947088970        3.1354269820       -1.7603896370
CB            3.2784749500        3.3123921480       -3.0334720960
HB            2.7592394170        3.9101126150       -2.2821455010
HB            3.7721052590        4.0034955720       -3.7194142140
CG            2.2367837510        2.4900143810       -3.8153468980
HG            2.7422557220        1.8615171260       -4.5497326200
HG            1.6860813590        1.8522365590       -3.1234968340
CD            1.2534859560        3.4142857480       -4.5499863440
HD            0.7309004486        4.0493149980       -3.8318835170
HD            1.8213763570        4.0592651430       -5.2231787700
CE            0.2339042139        2.6316404420       -5.3910593980
HE            0.7699578819        1.9086333190       -6.0136743520
HE           -0.2691673547        3.3349821300       -6.0619290820
NZ           -0.7827218985        1.9380791700       -4.5553728530
HZ           -1.3220480260        2.5972720190       -4.0092366350
HZ           -0.3567250498        1.2790967610       -3.9147338530
HZ           -1.4302550010        1.4184876800       -5.1344397100
C             3.7491171080        1.4715025330       -1.3319203260
O             3.6738823200        0.2674037100       -1.5966208490
N             3.2817540740        2.0009402400       -0.2010160313
H             3.3831758980        2.9969418070       -0.0745885361
CA            2.4690426980        1.2764415040        0.7830603901
HA            2.7045887140        0.2154732261        0.7144751862
CB            2.8247852000        1.7279700800        2.2055961250
HB            2.7565157250        2.8153844370        2.2675555630
HB            2.0821686210        1.3190714130        2.8915410490
CG            4.1720277250        1.2874070010        2.6934461830
CD            5.3266960360        1.9820498230        2.5734590820
HD            5.4206172820        2.9576176800        2.1048354150
NE            6.3654617190        1.2572321990        3.1283464720
HE            7.3267284410        1.5832500300        3.1419657560
CE            5.9283321300        0.0541877187        3.6420934830
CZ            6.5778799290       -1.0057171390        4.2935159690
HZ            7.6444517330       -0.9654083426        4.4691731810
CH            5.8239994750       -2.1149690560        4.7162073560
HH            6.3094665280       -2.9414400280        5.2218866060
CZ            4.4365489090       -2.1496873760        4.4826988790
HZ            3.8586444390       -3.0048966980        4.8121507390
CE            3.7967470620       -1.0804910770        3.8245748990
HE            2.7316744310       -1.1143452110        3.6499499620
CD            4.5239366510        0.0475040642        3.3845638550
C             0.9655063035        1.4389316750        0.5028797050
O             0.5035944877        2.5264934420        0.1435271603
N             0.2038174675        0.3602706674        0.7028544701
H             0.6773544453       -0.4961692582        0.9754315342
CA           -1.2391027560        0.2611781032        0.4140928405
HA           -1.6730477380        1.2597348630        0.3545394297
CB           -1.4556735570       -0.4399192514       -0.9415443438
HB           -1.0161941880       -1.4377185860       -0.9003739078
CG           -2.9258087270       -0.5632894479       -1.3451471550
HG           -3.4020420560        0.4179372030       -1.3315267090
HG           -2.9979178960       -0.9835324413       -2.3490387010
HG           -3.4505761510       -1.2286004280       -0.6602621937
OG           -0.8245700246        0.2835835694       -1.9750770660
HG           -0.6633752889       -0.3672710239       -2.7005308250
C            -1.9556926750       -0.5160719752        1.5212272160
O            -1.5028631290       -1.5924954680        1.9167904910
N            -3.0846140560       -0.0024939362        2.0148991400
H            -3.4116346950        0.8839303681        1.6560077650
CA           -3.9300327210       -0.6885037297        3.0011959520
HA           -3.2910073120       -1.2171226300        3.7090657280
CB           -4.7326255510        0.3493450343        3.7950380500
HB           -4.0326836740        1.0208876410        4.2946728370
HB           -5.3216744530        0.9493992107        3.0992418950
CG           -5.6567800640       -0.2161261224        4.8315641370
CD           -6.9655791280       -0.5035347525        4.6437906480
HD           -7.5077963330       -0.3567342652        3.7130547270
NE           -7.5063360010       -1.0028467710        5.8135531580
HE           -8.4813752700       -1.2733110640        5.9054337870
CE           -6.5688821990       -1.0564625840        6.8223693890
CZ           -6.6241358820       -1.4697632150        8.1623995910
HZ           -7.5556042900       -1.8243525550        8.5851965270
CH           -5.4622566770       -1.3975424200        8.9510472450
HH           -5.4916242810       -1.6955492070        9.9932986850
CZ           -4.2622957460       -0.9284533153        8.3855120470
HZ           -3.3696214070       -0.8641185596        8.9971165790
CE           -4.2181682300       -0.5228380004        7.0365995310
HE           -3.2939116840       -0.1543853534        6.6145999100
CD           -5.3693124210       -0.5679825853        6.2208239910
C            -4.8491178300       -1.7197617940        2.3242588590
O            -5.5298270890       -1.3986233130        1.3436863190
N            -4.8756320180       -2.9532814030        2.8486414600
H            -4.2920222780       -3.1278952960        3.6621731410
CA           -5.6606501100       -4.0917359960        2.3272362340
HA           -6.4697853970       -3.7094270900        1.7009256270
CB           -4.7690151150       -4.9997174760        1.4524359200
HB           -5.3731620170       -5.8297457180        1.0814782030
HB           -3.9607657990       -5.4108337870        2.0602037330
CG           -4.1662616750       -4.2597769420        0.2464945370
HG           -3.4429192550       -3.5254431520        0.6023911397
HG           -4.9614499200       -3.7397015550       -0.2897945458
CD           -3.4625952630       -5.2158763550       -0.7246792631
HD           -4.1981506770       -5.8933285230       -1.1627195950
HD           -2.7123541410       -5.7980495040       -0.1876788068
CE           -2.7827250770       -4.3978316370       -1.8291563520
HE           -3.5317188390       -3.7621354490       -2.3116191150
HE           -2.0346276040       -3.7467518900       -1.3663293910
NZ           -2.1307826880       -5.2631396970       -2.8451345050
HZ           -1.4485946780       -5.8792914250       -2.4248792600
HZ           -2.8066742250       -5.8284372970       -3.3409610300
HZ           -1.6418241080       -4.6855914630       -3.5330714670
C            -6.3279093870       -4.8971056020        3.4515610440
O            -5.8839201700       -4.8872342200        4.6008403970
N            -7.3911928570       -5.6185755470        3.1356279660
HN           -7.7334510480       -5.6205009010        2.1880947570
HN           -7.8441912590       -6.1613653930        3.8531940890
   220
 Energy=    -453.178133127082
N            -4.7982498270       -4.1892095440        7.1823669070
H1           -5.0215900750       -4.6276238420        6.2967812570
H2           -5.2062706200       -3.2661780500        7.1923153340
H3           -5.2119088920       -4.7343368060        7.9251355250
CA           -3.3267293550       -4.1135583100        7.3755573360
HA           -3.1304384450       -3.5628925190        8.2968384910