    38
 Energy=    -173.928426590629
AX            0.5488521446        0.5484798294       -0.0002632749
AX            1.6593952170        0.5542996357       -0.0005311692
AX            0.5554255174        1.6590186930       -0.0005312561
AX           -0.5484798447        0.5488521607       -0.0000000410
AX           -1.6590186990        0.5554256309        0.0002648753
AX           -0.5542997091        1.6593952180       -0.0002650311
AX           -0.5488521530       -0.5484798237        0.0002632683
AX           -1.6593952170       -0.5542995902        0.0005311407
AX           -0.5554255675       -1.6590186890        0.0005312278
AX            0.5484798473       -0.5488521617        0.0000000508
AX            1.6590187280       -0.5554255885       -0.0002648466
AX            0.5542996617       -1.6593952490        0.0002650599
AX            0.0001861929        0.0001861238        0.7759309026
AX            1.1018605190       -0.0001869319        0.7787366036
AX           -1.1014866540        0.0005606755        0.7792651551
AX            0.0005607052        1.1018604370        0.7787365218
AX           -0.0001868602       -1.1014867270        0.7792652250
AX            1.1075977630        1.1068464940        0.7803581794
AX           -1.1064718010        1.1075977230        0.7808893438
AX           -1.1072230190       -1.1064718330        0.7814205785
AX            1.1068465700       -1.1072230900        0.7808894732
AX           -0.0001861872       -0.0001861265       -0.7759309045
AX            1.1014866650       -0.0005606872       -0.7792651409
AX           -1.1018605080        0.0001869609       -0.7787366190
AX            0.0001868294        1.1014867170       -0.7792652388
AX           -0.0005606952       -1.1018604470       -0.7787365092
AX            1.1072229770        1.1064718300       -0.7814206123
AX           -1.1068465880        1.1072231050       -0.7808894907
AX           -1.1075977590       -1.1068464500       -0.7803582183
AX            1.1064718300       -1.1075977540       -0.7808892543
AX            0.5527352193        0.5523603687        1.5653186830
AX           -0.5516091248        0.5527350491        1.5655836170
AX           -0.5519838459       -0.5516092955        1.5658485930
AX            0.5523605014       -0.5519839816        1.5655836720
AX            0.5519838280        0.5516092385       -1.5658486020
AX           -0.5523605134        0.5519839958       -1.5655836930
AX           -0.5527351599       -0.5523603486       -1.5653186950
AX            0.5516091895       -0.5527351114       -1.5655835750
    38
 Energy=    -173.928426590628
AX            0.5488521431        0.5484798290       -0.0002632740
AX            1.6593952200        0.5542996361       -0.0005311700
AX            0.5554255259        1.6590186950       -0.0005312555
AX           -0.5484798392        0.5488521546       -0.0000000407
AX           -1.6590187030        0.5554256257        0.0002648726
AX           -0.5542997035        1.6593952200       -0.0002650323
AX           -0.5488521587       -0.5484798236        0.0002632725
AX           -1.6593952180       -0.5542995951        0.0005311447
AX           -0.5554255707       -1.6590186910        0.0005312304
AX            0.5484798497       -0.5488521571        0.0000000541
AX            1.6590187280       -0.5554255875       -0.0002648464
AX            0.5542996605       -1.6593952460        0.0002650586
AX            0.0001861913        0.0001861247        0.7759308951
AX            1.1018605190       -0.0001869294        0.7787366047
AX           -1.1014866580        0.0005606742        0.7792651557
AX            0.0005607061        1.1018604340        0.7787365184
AX           -0.0001868607       -1.1014867320        0.7792652223
AX            1.1075977680        1.1068464950        0.7803581787
AX           -1.1064718030        1.1075977230        0.7808893381
AX           -1.1072230210       -1.1064718330        0.7814205794
AX            1.1068465700       -1.1072230860        0.7808894717
AX           -0.0001861872       -0.0001861196       -0.7759309022
AX            1.1014866690       -0.0005606869       -0.7792651446
AX           -1.1018605090        0.0001869532       -0.7787366202
AX            0.0001868333        1.1014867200       -0.7792652357
AX           -0.0005606968       -1.1018604480       -0.7787365093
AX            1.1072229840        1.1064718320       -0.7814206111
AX           -1.1068465860        1.1072231020       -0.7808894889
AX           -1.1075977640       -1.1068464550       -0.7803582137
AX            1.1064718290       -1.1075977510       -0.7808892572
AX            0.5527352175        0.5523603693        1.5653186810
AX           -0.5516091280        0.5527350501        1.5655836150
AX           -0.5519838471       -0.5516092964        1.5658485940
AX            0.5523605002       -0.5519839827        1.5655836700
AX            0.5519838297        0.5516092446       -1.5658486000
AX           -0.5523605097        0.5519839948       -1.5655836880
AX           -0.5527351643       -0.5523603508       -1.5653186910
AX            0.5516091866       -0.5527351060       -1.5655835760
    38
 Energy=    -173.928426590628
AX            0.5488521565        0.5484798363       -0.0002632793
AX            1.6593952180        0.5542996442       -0.0005311730
AX            0.5554255179        1.6590186990       -0.0005312604
AX           -0.5484798567        0.5488521615       -0.0000000433
AX           -1.6590186870        0.5554256292        0.0002648779
AX           -0.5542997143        1.6593952110       -0.0002650296
AX           -0.5488521525       -0.5484798295        0.0002632630
AX           -1.6593952220       -0.5542995874        0.0005311366
AX           -0.5554255812       -1.6590186950        0.0005312242
AX            0.5484798450       -0.5488521594        0.0000000470
AX            1.6590187280       -0.5554255764       -0.0002648428
AX            0.5542996556       -1.6593952510        0.0002650648
AX            0.0001861911        0.0001861142        0.7759309101
AX            1.1018605210       -0.0001869195        0.7787366087
AX           -1.1014866490        0.0005606851        0.7792651614
AX            0.0005607114        1.1018604360        0.7787365201
AX           -0.0001868644       -1.1014867340        0.7792652205
AX            1.1075977710        1.1068465050        0.7803581737
AX           -1.1064717960        1.1075977200        0.7808893559
AX           -1.1072230280       -1.1064718380        0.7814205754
AX            1.1068465780       -1.1072230870        0.7808894759
AX           -0.0001861823       -0.0001861315       -0.7759309026
AX            1.1014866610       -0.0005606958       -0.7792651404
AX           -1.1018605080        0.0001869600       -0.7787366252
AX            0.0001868251        1.1014867260       -0.7792652356
AX           -0.0005606992       -1.1018604430       -0.7787365003
AX            1.1072229740        1.1064718320       -0.7814206155
AX           -1.1068465990        1.1072231030       -0.7808894952
AX           -1.1075977660       -1.1068464520       -0.7803582227
AX            1.1064718340       -1.1075977610       -0.7808892445
AX            0.5527352273        0.5523603686        1.5653186790
AX           -0.5516091166        0.5527350430        1.5655836230
AX           -0.5519838468       -0.5516093029        1.5658485820
AX            0.5523604951       -0.5519839878        1.5655836730
AX            0.5519838268        0.5516092325       -1.5658485950
AX           -0.5523605125        0.5519840068       -1.5655837020
AX           -0.5527351522       -0.5523603443       -1.5653186940
AX            0.5516091969       -0.5527351215       -1.5655835700
    38
 Energy=    -173.928426590627
AX            0.5488521331        0.5484798253       -0.0002632809
AX            1.6593952060        0.5542996559       -0.0005311797
AX            0.5554254618        1.6590186980       -0.0005312748
AX           -0.5484798472        0.5488521764       -0.0000000423
AX           -1.6590186590        0.5554256677        0.0002648991
AX           -0.5542997642        1.6593951970       -0.0002650138
AX           -0.5488521486       -0.5484798117        0.0002632624
AX           -1.6593952070       -0.5542995471        0.0005311114
AX           -0.5554255817       -1.6590186890        0.0005312067
AX            0.5484798485       -0.5488521776        0.0000000630
AX            1.6590187310       -0.5554255666       -0.0002648308
AX            0.5542996510       -1.6593952700        0.0002650823
AX            0.0001862088        0.0001861219        0.7759309153
AX            1.1018605140       -0.0001869328        0.7787366003
AX           -1.1014866190        0.0005606820        0.7792651554
AX            0.0005607046        1.1018604320        0.7787365379
AX           -0.0001868598       -1.1014867220        0.7792652226
AX            1.1075977560        1.1068465160        0.7803581685
AX           -1.1064717770        1.1075977210        0.7808894220
AX           -1.1072230320       -1.1064718310        0.7814205560
AX            1.1068465840       -1.1072230980        0.7808894836
AX           -0.0001861948       -0.0001861328       -0.7759309167
AX            1.1014866440       -0.0005607087       -0.7792651204
AX           -1.1018604880        0.0001870036       -0.7787366362
AX            0.0001867860        1.1014866980       -0.7792652548
AX           -0.0005606809       -1.1018604560       -0.7787365065
AX            1.1072229300        1.1064718240       -0.7814206361
AX           -1.1068466250        1.1072231350       -0.7808895245
AX           -1.1075977470       -1.1068464120       -0.7803582617
AX            1.1064718480       -1.1075977960       -0.7808892082
AX            0.5527352514        0.5523603696        1.5653186900
AX           -0.5516090798        0.5527350284        1.5655836590
AX           -0.5519838479       -0.5516093194        1.5658485800
AX            0.5523605051       -0.5519839904        1.5655836880
AX            0.5519838060        0.5516091833       -1.5658486000
AX           -0.5523605344        0.5519840247       -1.5655837400
AX           -0.5527351091       -0.5523603218       -1.5653187190
AX            0.5516092342       -0.5527351776       -1.5655835570
    38
 Energy=    -173.928426590626
AX            0.5488521276        0.5484798205       -0.0002632849
AX            1.6593951900        0.5542996625       -0.0005311783
AX            0.5554254245        1.6590186880       -0.0005312835
AX           -0.5484798537        0.5488521884       -0.0000000434
AX           -1.6590186450        0.5554256986        0.0002649148
AX           -0.5542997932        1.6593951910       -0.0002650086
AX           -0.5488521418       -0.5484798036        0.0002632588
AX           -1.6593951920       -0.5542995257        0.0005310922
AX           -0.5554255756       -1.6590186770        0.0005311974
AX            0.5484798499       -0.5488521886        0.0000000662
AX            1.6590187370       -0.5554255715       -0.0002648291
AX            0.5542996511       -1.6593952830        0.0002650944
AX            0.0001862162        0.0001861201        0.7759309279
AX            1.1018605100       -0.0001869389        0.7787365960
AX           -1.1014866020        0.0005606904        0.7792651587
AX            0.0005606952        1.1018604370        0.7787365563
AX           -0.0001868581       -1.1014867120        0.7792652253
AX            1.1075977410        1.1068465130        0.7803581643
AX           -1.1064717660        1.1075977160        0.7808894596
AX           -1.1072230260       -1.1064718280        0.7814205405
AX            1.1068465830       -1.1072231070        0.7808894860
AX           -0.0001861980       -0.0001861390       -0.7759309259
AX            1.1014866330       -0.0005607226       -0.7792651135
AX           -1.1018604780        0.0001870295       -0.7787366401
AX            0.0001867650        1.1014866850       -0.7792652650
AX           -0.0005606655       -1.1018604640       -0.7787365154
AX            1.1072228980        1.1064718180       -0.7814206405
AX           -1.1068466340        1.1072231520       -0.7808895364
AX           -1.1075977290       -1.1068463820       -0.7803582818
AX            1.1064718550       -1.1075978110       -0.7808891909
AX            0.5527352669        0.5523603679        1.5653186990
AX           -0.5516090635        0.5527350200        1.5655836740
AX           -0.5519838465       -0.5516093206        1.5658485860
AX            0.5523605103       -0.5519839862        1.5655836920
AX            0.5519837947        0.5516091497       -1.5658486130
AX           -0.5523605481        0.5519840300       -1.5655837590
AX           -0.5527350877       -0.5523603079       -1.5653187360
AX            0.5516092574       -0.5527352079       -1.5655835460
    38
 Energy=    -173.928426590624
AX            0.5488521139        0.5484798147       -0.0002632855
AX            1.6593951600        0.5542996564       -0.0005311886
AX            0.5554253731        1.6590186510       -0.0005312932
AX           -0.5484798494        0.5488521978       -0.0000000271
AX           -1.6590186390        0.5554257406        0.0002649263
AX           -0.5542998231        1.6593951840       -0.0002650015
AX           -0.5488521365       -0.5484797936        0.0002632559
AX           -1.6593951620       -0.5542994868        0.0005310821
AX           -0.5554255602       -1.6590186370        0.0005311867
AX            0.5484798499       -0.5488521992        0.0000000585
AX            1.6590187520       -0.5554255830       -0.0002648197
AX            0.5542996466       -1.6593952980        0.0002651082
AX            0.0001862157        0.0001861350        0.7759309320
AX            1.1018605080       -0.0001869373        0.7787365924
AX           -1.1014865990        0.0005606830        0.7792651622
AX            0.0005606913        1.1018604380        0.7787365697
AX           -0.0001868607       -1.1014867110        0.7792652224
AX            1.1075977060        1.1068464930        0.7803581465
AX           -1.1064717730        1.1075977090        0.7808894975
AX           -1.1072230150       -1.1064718030        0.7814205224
AX            1.1068465680       -1.1072231220        0.7808894899
AX           -0.0001861937       -0.0001861533       -0.7759309330
AX            1.1014866380       -0.0005607242       -0.7792651072
AX           -1.1018604690        0.0001870482       -0.7787366481
AX            0.0001867456        1.1014866750       -0.7792652725
AX           -0.0005606544       -1.1018604740       -0.7787365202
AX            1.1072228560        1.1064717910       -0.7814206472
AX           -1.1068466320        1.1072231790       -0.7808895535
AX           -1.1075976910       -1.1068463310       -0.7803582919
AX            1.1064718830       -1.1075978270       -0.7808891641
AX            0.5527352861        0.5523603683        1.5653187060
AX           -0.5516090504        0.5527349949        1.5655837050
AX           -0.5519838429       -0.5516093296        1.5658486050
AX            0.5523605285       -0.5519839738        1.5655836940
AX            0.5519837778        0.5516091173       -1.5658486380
AX           -0.5523605743        0.5519840277       -1.5655837750
AX           -0.5527350642       -0.5523602936       -1.5653187510
AX            0.5516092911       -0.5527352278       -1.5655835460
    38
 Energy=    -173.928426590621
AX            0.5488520595        0.5484797778       -0.0002632788
AX            1.6593951210        0.5542996292       -0.0005312152
AX            0.5554253345        1.6590186000       -0.0005313026
AX           -0.5484798781        0.5488521971       -0.0000000218
AX           -1.6590186380        0.5554258002        0.0002649211
AX           -0.5542998610        1.6593951790       -0.0002649771
AX           -0.5488520844       -0.5484797526        0.0002632425
AX           -1.6593951240       -0.5542994272        0.0005310884
AX           -0.5554255575       -1.6590185830        0.0005311756
AX            0.5484798767       -0.5488521983        0.0000000579
AX            1.6590187720       -0.5554256125       -0.0002647942
AX            0.5542996509       -1.6593953150        0.0002651039
AX            0.0001862015        0.0001861200        0.7759309516
AX            1.1018605200       -0.0001869567        0.7787365966
AX           -1.1014866300        0.0005607075        0.7792652125
AX            0.0005606497        1.1018604220        0.7787365970
AX           -0.0001868541       -1.1014867090        0.7792652449
AX            1.1075976700        1.1068464720        0.7803581098
AX           -1.1064718010        1.1075977050        0.7808895478
AX           -1.1072230010       -1.1064717510        0.7814205141
AX            1.1068465550       -1.1072231160        0.7808894795
AX           -0.0001861751       -0.0001861440       -0.7759309514
AX            1.1014866770       -0.0005607562       -0.7792651465
AX           -1.1018604740        0.0001870894       -0.7787366624
AX            0.0001867169        1.1014866670       -0.7792653042
AX           -0.0005606058       -1.1018604640       -0.7787365376
AX            1.1072228110        1.1064717370       -0.7814206624
AX           -1.1068466320        1.1072231830       -0.7808895549
AX           -1.1075976530       -1.1068462790       -0.7803582831
AX            1.1064719320       -1.1075978450       -0.7808891508
AX            0.5527352896        0.5523603781        1.5653187210
AX           -0.5516090568        0.5527349696        1.5655837520
AX           -0.5519838206       -0.5516093432        1.5658486400
AX            0.5523605232       -0.5519839629        1.5655836800
AX            0.5519837435        0.5516090903       -1.5658486790
AX           -0.5523605782        0.5519840272       -1.5655837780
AX           -0.5527350253       -0.5523602891       -1.5653187750
AX            0.5516093432       -0.5527352471       -1.5655835620
    38
 Energy=    -173.928426590614
AX            0.5488520235        0.5484797476       -0.0002632787
AX            1.6593950710        0.5542996001       -0.0005312531
AX            0.5554253251        1.6590185390       -0.0005313110
AX           -0.5484799021        0.5488521827        0.0000000037
AX           -1.6590186640        0.5554258320        0.0002649092
AX           -0.5542998680        1.6593951840       -0.0002649387
AX           -0.5488520517       -0.5484797197        0.0002632386
AX           -1.6593950740       -0.5542993754        0.0005311123
AX           -0.5554255731       -1.6590185200        0.0005311696
AX            0.5484799010       -0.5488521842        0.0000000369
AX            1.6590188140       -0.5554256231       -0.0002647680
AX            0.5542996342       -1.6593953350        0.0002650797
AX            0.0001861674        0.0001861162        0.7759309584
AX            1.1018605200       -0.0001869392        0.7787366190
AX           -1.1014866610        0.0005607508        0.7792652721
AX            0.0005606187        1.1018603890        0.7787366021
AX           -0.0001868466       -1.1014867340        0.7792652320
AX            1.1075976420        1.1068464530        0.7803580540
AX           -1.1064718580        1.1075977130        0.7808895830
AX           -1.1072229880       -1.1064716850        0.7814204988
AX            1.1068465550       -1.1072231130        0.7808894595
AX           -0.0001861380       -0.0001861423       -0.7759309586
AX            1.1014867130       -0.0005608051       -0.7792651988
AX           -1.1018604680        0.0001870867       -0.7787366923
AX            0.0001866941        1.1014866870       -0.7792652981
AX           -0.0005605699       -1.1018604350       -0.7787365363
AX            1.1072227770        1.1064716690       -0.7814206639
AX           -1.1068466390        1.1072231880       -0.7808895434
AX           -1.1075976230       -1.1068462380       -0.7803582467
AX            1.1064720040       -1.1075978690       -0.7808891414
AX            0.5527352911        0.5523604141        1.5653187240
AX           -0.5516090739        0.5527349389        1.5655838200
AX           -0.5519838179       -0.5516093773        1.5658486770
AX            0.5523605080       -0.5519839492        1.5655836780
AX            0.5519837321        0.5516090959       -1.5658487200
AX           -0.5523605690        0.5519840208       -1.5655837860
AX           -0.5527349972       -0.5523603150       -1.5653187830
AX            0.5516093925       -0.5527352477       -1.5655836090
    38
 Energy=    -173.928426590591
AX            0.5488520139        0.5484796580       -0.0002633388
AX            1.6593950290        0.5542995408       -0.0005313046
AX            0.5554253593        1.6590185210       -0.0005313159
AX           -0.5484799773        0.5488521458        0.0000000358
AX           -1.6590187230        0.5554257836        0.0002648645
AX           -0.5542998403        1.6593952040       -0.0002648547
AX           -0.5488520412       -0.5484796274        0.0002632929
AX           -1.6593950330       -0.5542992949        0.0005311503
AX           -0.5554256309       -1.6590185000        0.0005311607
AX            0.5484799725       -0.5488521468        0.0000000067
AX            1.6590188880       -0.5554255550       -0.0002647100
AX            0.5542995844       -1.6593953690        0.0002650088
AX            0.0001860917        0.0001860801        0.7759309852
AX            1.1018604880       -0.0001869191        0.7787366336
AX           -1.1014866350        0.0005608357        0.7792653209
AX            0.0005605647        1.1018603200        0.7787365977
AX           -0.0001868305       -1.1014867370        0.7792651959
AX            1.1075976560        1.1068464780        0.7803579992
AX           -1.1064719350        1.1075977550        0.7808896017
AX           -1.1072229740       -1.1064715990        0.7814205114
AX            1.1068465710       -1.1072231110        0.7808894310
AX           -0.0001860592       -0.0001861119       -0.7759309831
AX            1.1014866920       -0.0005608942       -0.7792652398
AX           -1.1018604310        0.0001870816       -0.7787367131
AX            0.0001866635        1.1014866870       -0.7792652679
AX           -0.0005605115       -1.1018603690       -0.7787365246
AX            1.1072227430        1.1064715810       -0.7814206916
AX           -1.1068466640        1.1072231920       -0.7808895223
AX           -1.1075976350       -1.1068462430       -0.7803582103
AX            1.1064720950       -1.1075979260       -0.7808891183
AX            0.5527352832        0.5523605064        1.5653187120
AX           -0.5516090743        0.5527349056        1.5655839240
AX           -0.5519838478       -0.5516094894        1.5658486810
AX            0.5523604776       -0.5519839379        1.5655836880
AX            0.5519837545        0.5516091815       -1.5658487290
AX           -0.5523605448        0.5519840166       -1.5655838070
AX           -0.5527349614       -0.5523603980       -1.5653187780
AX            0.5516094230       -0.5527352438       -1.5655836940
    38
 Energy=    -173.928426590536
AX            0.5488519767        0.5484796082       -0.0002633516
AX            1.6593950600        0.5542994578       -0.0005313448
AX            0.5554253953        1.6590185140       -0.0005313693
AX           -0.5484800149        0.5488522471       -0.0000000078
AX           -1.6590188240        0.5554256862        0.0002648078
AX           -0.5542997746        1.6593951650       -0.0002647617
AX           -0.5488520113       -0.5484795752        0.0002633048
AX           -1.6593950630       -0.5542991921        0.0005311785
AX           -0.5554256886       -1.6590184920        0.0005312017
AX            0.5484800149       -0.5488522491        0.0000000566
AX            1.6590190010       -0.5554254391       -0.0002646405
AX            0.5542994978       -1.6593953430        0.0002649284
AX            0.0001861567        0.0001860790        0.7759310839
AX            1.1018603700       -0.0001868395        0.7787366703
AX           -1.1014866430        0.0005609494        0.7792654138
AX            0.0005604726        1.1018601910        0.7787365779
AX           -0.0001867854       -1.1014867450        0.7792650554
AX            1.1075977090        1.1068464740        0.7803579523
AX           -1.1064720080        1.1075977680        0.7808896137
AX           -1.1072229760       -1.1064715440        0.7814205912
AX            1.1068465520       -1.1072231500        0.7808893845
AX           -0.0001861220       -0.0001861086       -0.7759310849
AX            1.1014867050       -0.0005610141       -0.7792653272
AX           -1.1018603080        0.0001870136       -0.7787367570
AX            0.0001866052        1.1014866890       -0.7792651340
AX           -0.0005604151       -1.1018602470       -0.7787365003
AX            1.1072227270        1.1064715250       -0.7814207867
AX           -1.1068466530        1.1072232390       -0.7808894841
AX           -1.1075976870       -1.1068462200       -0.7803581802
AX            1.1064721800       -1.1075979520       -0.7808890912
AX            0.5527352566        0.5523605942        1.5653186330
AX           -0.5516090851        0.5527348566        1.5655840030
AX           -0.5519839138       -0.5516096532        1.5658486790
AX            0.5523604743       -0.5519838760        1.5655837040
AX            0.5519838123        0.5516093201       -1.5658487300
AX           -0.5523605460        0.5519839607       -1.5655838310
AX           -0.5527349092       -0.5523604767       -1.5653187040
AX            0.5516094620       -0.5527352219       -1.5655837540
    38
 Energy=    -173.928426589339
AX            0.5488528592        0.5484797045       -0.0002639162
AX            1.6593958120        0.5542995057       -0.0005317187
AX            0.5554257326        1.6590180760       -0.0005320895
AX           -0.5484802578        0.5488523169       -0.0000003713
AX           -1.6590189000        0.5554255797        0.0002639863
AX           -0.5542996485        1.6593949220       -0.0002642360
AX           -0.5488529023       -0.5484796661        0.0002638619
AX           -1.6593958160       -0.5542991920        0.0005315229
AX           -0.5554260792       -1.6590180500        0.0005318908
AX            0.5484802600       -0.5488523185        0.0000004299
AX            1.6590191080       -0.5554252882       -0.0002637885
AX            0.5542993215       -1.6593951320        0.0002644328
AX            0.0001863335        0.0001857297        0.7759313052
AX            1.1018601850       -0.0001871199        0.7787365049
AX           -1.1014866400        0.0005603025        0.7792649704
AX            0.0005605459        1.1018597890        0.7787362558
AX           -0.0001866699       -1.1014863960        0.7792651228
AX            1.1075981710        1.1068459610        0.7803573631
AX           -1.1064724860        1.1075968980        0.7808893583
AX           -1.1072236410       -1.1064716800        0.7814210884
AX            1.1068462150       -1.1072238740        0.7808895941
AX           -0.0001862919       -0.0001857626       -0.7759313071
AX            1.1014867130       -0.0005603798       -0.7792648682
AX           -1.1018601130        0.0001873252       -0.7787366074
AX            0.0001864570        1.1014863290       -0.7792652159
AX           -0.0005604784       -1.1018598550       -0.7787361646
AX            1.1072233470        1.1064716570       -0.7814213199
AX           -1.1068463340        1.1072239790       -0.7808897118
AX           -1.1075981450       -1.1068456600       -0.7803576324
AX            1.1064726890       -1.1075971160       -0.7808887412
AX            0.5527348888        0.5523609281        1.5653183590
AX           -0.5516095101        0.5527339362        1.5655837720
AX           -0.5519834417       -0.5516103856        1.5658486490
AX            0.5523611527       -0.5519834930        1.5655839780
AX            0.5519833218        0.5516099915       -1.5658487080
AX           -0.5523612369        0.5519835929       -1.5655841280
AX           -0.5527344790       -0.5523607891       -1.5653184430
AX            0.5516099550       -0.5527343679       -1.5655834770
    38
 Energy=    -173.928426588950
AX            0.5488529730        0.5484797862       -0.0002639403
AX            1.6593959080        0.5542995366       -0.0005317894
AX            0.5554258121        1.6590180040       -0.0005321535
AX           -0.5484802928        0.5488523401       -0.0000004821
AX           -1.6590189150        0.5554255581        0.0002638974
AX           -0.5542996335        1.6593949180       -0.0002641221
AX           -0.5488530203       -0.5484797469        0.0002638868
AX           -1.6593959110       -0.5542992162        0.0005315896
AX           -0.5554261661       -1.6590179770        0.0005319506
AX            0.5484802984       -0.5488523421        0.0000005435
AX            1.6590191270       -0.5554252603       -0.0002636951
AX            0.5542992995       -1.6593951320        0.0002643232
AX            0.0001864065        0.0001856447        0.7759313466
AX            1.1018601500       -0.0001872123        0.7787364835
AX           -1.1014866720        0.0005601957        0.7792649197
AX            0.0005606480        1.1018597290        0.7787361433
AX           -0.0001866214       -1.1014863180        0.7792651632
AX            1.1075982210        1.1068459260        0.7803572502
AX           -1.1064725870        1.1075967960        0.7808893402
AX           -1.1072237540       -1.1064716930        0.7814211338
AX            1.1068461800       -1.1072239530        0.7808895866
AX           -0.0001863642       -0.0001856756       -0.7759313506
AX            1.1014867460       -0.0005602760       -0.7792648160