    38
Energy=    -168.314891570656    
AX        0.5553573336        0.7632115773       -0.1398025974    
AX         1.619550384         1.032264426       -0.1410489861    
AX        0.7726289107         1.782945942       -0.4234735786    
AX       -0.4384624285        0.3510153173        0.5087790294E-01
AX        -1.601426959        0.5081788137        0.8924828547E-01
AX       -0.2334689347         1.468773942        0.5251804322E-01
AX       -0.6105609395       -0.7242347078        0.1519652287    
AX        -1.735008931       -0.5893565356        0.1152679683    
AX       -0.6758774905        -1.822712544        0.1350687425    
AX        0.4168858980       -0.3235619580       -0.2820249996E-02
AX         1.372162272       -0.9191350847       -0.1312441910E-01
AX        0.3219701205        -1.377464174       -0.4177030192E-01
AX       -0.6886222739E-01   -0.2400816622        0.9459822694    
AX         1.135520830        0.2493134540        0.5981843525    
AX        -1.127289583       -0.7250215509E-01    0.8724243472    
AX        0.1501906201        0.8027901162        0.8654682180    
AX       -0.1445701668        -1.317445842        0.9742844929    
AX        0.9666808442         1.453844539        0.6257115004    
AX       -0.9192481365         1.007007549        0.8031713097    
AX        -1.253565191        -1.216679198        0.8784813125    
AX        0.8480174494       -0.7899239338        0.9170270357    
AX        0.2688593783        0.1456031538       -0.9446132595    
AX         1.308083359        0.4974312339E-01   -0.5127184223    
AX        -1.096159567       -0.1319809355       -0.6607546300    
AX        0.1274270893E-01     1.203616655        -1.009322177    
AX       -0.2590259812       -0.8054459629       -0.8531542000    
AX         1.069728924        0.9430720190        -1.107462269    
AX       -0.9794947744        0.9908369514       -0.6524419737    
AX        -1.238707022        -1.241960449       -0.6143580281    
AX        0.8045774236       -0.8403101385       -0.9438573817    
AX        0.6813695552        0.1946020226         1.605268004    
AX       -0.4893434510        0.4167120591         1.684884488    
AX       -0.7619803928       -0.6787391223         1.700057812    
AX        0.3021962137       -0.8007896566         1.867506407    
AX        0.3593935682        0.6600157032        -1.922539156    
AX       -0.6207240162        0.3621251772        -1.509544482    
AX        0.1333931182       -0.4525426183        -1.831272215    
AX         1.154467281       -0.4080586351E-01    -1.609319393    
    38
Energy=    -168.313939928033    
AX        0.5567689815        0.7638200292       -0.1402227537    
AX         1.620166347         1.032743003       -0.1412592461    
AX        0.7743899723         1.783305565       -0.4270004256    
AX       -0.4373282228        0.3504646727        0.5065448450E-01
AX        -1.603159083        0.5077652853        0.8980328923E-01
AX       -0.2314757517         1.468899765        0.5307339067E-01
AX       -0.6110390295       -0.7246010573        0.1523927884    
AX        -1.735994586       -0.5906355364        0.1149808918    
AX       -0.6758917173        -1.822415136        0.1337988190    
AX        0.4176878549       -0.3225518338       -0.1916536700E-02
AX         1.373102567       -0.9158478660       -0.1074471363E-01
AX        0.3226731931        -1.376416060       -0.4017434545E-01
AX       -0.7045078289E-01   -0.2413019019        0.9462856859    
AX         1.138765384        0.2487393803        0.5964809640    
AX        -1.128538427       -0.7299716312E-01    0.8721577052    
AX        0.1520824980        0.8010427730        0.8652271579    
AX       -0.1460175940        -1.318511432        0.9750349128    
AX        0.9644018346         1.457211909        0.6228614491    
AX       -0.9179956273         1.005540585        0.8023573093    
AX        -1.254586614        -1.217775277        0.8780224331    
AX        0.8468353310       -0.7899392642        0.9186182198    
AX        0.2695352737        0.1461334384       -0.9442374892    
AX         1.308692976        0.5061743311E-01   -0.5141704387    
AX        -1.096576369       -0.1318784115       -0.6595127017    
AX        0.1268384110E-01     1.203746325        -1.009319050    
AX       -0.2582768679       -0.8044889751       -0.8516202080    
AX         1.070100167        0.9434191750        -1.108997917    
AX       -0.9792071667        0.9914605562       -0.6499957163    
AX        -1.238352494        -1.241309200       -0.6157031132    
AX        0.8053572494       -0.8399081211       -0.9425157108    
AX        0.6833571794        0.1911566208         1.602945022    
AX       -0.4890795597        0.4159000669         1.684874498    
AX       -0.7651452155       -0.6790963810         1.700314639    
AX        0.2987332703       -0.8010735581         1.868485161    
AX        0.3580692929        0.6600960535        -1.922790059    
AX       -0.6208984507        0.3623010264        -1.507417865    
AX        0.1329402515       -0.4528157559        -1.830041484    
AX         1.153670094       -0.4080073198E-01    -1.610729047    
    38
Energy=    -168.312483103167    
AX        0.5574042778        0.7640042503       -0.1403236228    
AX         1.620234048         1.034293894       -0.1420274553    
AX        0.7756825566         1.783962144       -0.4269271362    
AX       -0.4365933039        0.3502876122        0.5001743448E-01
AX        -1.603301576        0.5064989786        0.8834738158E-01
AX       -0.2293536416         1.469797961        0.5430681585E-01
AX       -0.6114114755       -0.7249919378        0.1529408571    
AX        -1.735498098       -0.5916874119        0.1135903818    
AX       -0.6755100186        -1.822738261        0.1350418155    
AX        0.4179831282       -0.3224787745       -0.2533563527E-02
AX         1.372533892       -0.9146015999       -0.9806609494E-02
AX        0.3234027686        -1.376486903       -0.3676990529E-01
AX       -0.7135678519E-01   -0.2415327936        0.9458982206    
AX         1.140100694        0.2481412998        0.5954972297    
AX        -1.129609424       -0.7352656140E-01    0.8713984358    
AX        0.1528179077        0.8002209802        0.8652672554    
AX       -0.1472117123        -1.318642376        0.9768260223    
AX        0.9640038832         1.457874795        0.6227412096    
AX       -0.9174725221         1.005093537        0.8005354265    
AX        -1.255853616        -1.218055377        0.8781519343    
AX        0.8459611377       -0.7896589263        0.9198879055    
AX        0.2686849077        0.1468225965       -0.9443059828    
AX         1.309459628        0.5115184499E-01   -0.5151515518    
AX        -1.095234347       -0.1328727966       -0.6599630776    
AX        0.1323000404E-01     1.204990288        -1.008757608    
AX       -0.2561601532       -0.8048628792       -0.8499629413    
AX         1.069851549        0.9429254394        -1.110035772    
AX       -0.9782569758        0.9920066262       -0.6488145069    
AX        -1.236357375        -1.242232355       -0.6164625545    
AX        0.8068623600       -0.8404511468       -0.9428171533    
AX        0.6841452178        0.1889217365         1.601666125    
AX       -0.4891937927        0.4159626827         1.684480540    
AX       -0.7662367704       -0.6788657965         1.700172404    
AX        0.2971395492       -0.8016095018         1.869702383    
AX        0.3569598566        0.6606610705        -1.922601005    
AX       -0.6220062938        0.3643228229        -1.507031756    
AX        0.1284707587       -0.4510431644        -1.830098552    
AX         1.151689757       -0.4160199637E-01    -1.612079024    
    38
Energy=    -168.310837296599    
AX        0.5580501069        0.7641330014       -0.1403972572    
AX         1.619900176         1.035333986       -0.1420151162    
AX        0.7758369336         1.784191199       -0.4264164594    
AX       -0.4364178098        0.3501301604        0.4898072615E-01
AX        -1.603493500        0.5055475698        0.8724406452E-01
AX       -0.2274862177         1.470693053        0.5487464000E-01
AX       -0.6115427698       -0.7258351951        0.1529987936    
AX        -1.735869495       -0.5931322084        0.1134433706    
AX       -0.6759795767        -1.823663931        0.1374638961    
AX        0.4177923101       -0.3223425409       -0.2399172943E-02
AX         1.371943463       -0.9139294090       -0.9879205920E-02
AX        0.3226726748        -1.376405692       -0.3531757208E-01
AX       -0.7155712620E-01   -0.2418340693        0.9456029383    
AX         1.139556210        0.2474908390        0.5947391157    
AX        -1.129477343       -0.7332646984E-01    0.8712804227    
AX        0.1530230240        0.7991962003        0.8647338026    
AX       -0.1479590433        -1.319049998        0.9782699762    
AX        0.9634300388         1.457968045        0.6232147286    
AX       -0.9172303248         1.004931802        0.7984419514    
AX        -1.256048180        -1.218033449        0.8793709662    
AX        0.8453107747       -0.7897678549        0.9196321029    
AX        0.2700442077        0.1471744711       -0.9447437252    
AX         1.310208798        0.5136474897E-01   -0.5159870522    
AX        -1.095797820       -0.1331422382       -0.6602948067    
AX        0.1383944288E-01     1.205621880        -1.007699584    
AX       -0.2555965236       -0.8041682573       -0.8499202330    
AX         1.070353358        0.9431878852        -1.109889585    
AX       -0.9774910505        0.9924486014       -0.6482738727    
AX        -1.235378740        -1.243876601       -0.6159849583    
AX        0.8069810765       -0.8398509371       -0.9433732272    
AX        0.6845389952        0.1874236499         1.601301082    
AX       -0.4902060163        0.4169517472         1.683026081    
AX       -0.7660665052       -0.6776054534         1.700961104    
AX        0.2975340595       -0.8027951061         1.870135241    
AX        0.3567051296        0.6618255125        -1.922634007    
AX       -0.6223406627        0.3649182272        -1.506760858    
AX        0.1266994341       -0.4501516291        -1.831086196    
AX         1.151518491       -0.4162154045E-01    -1.612642115    
    38
Energy=    -168.307932051852    
AX        0.5579746969        0.7640836994       -0.1417958978    
AX         1.619607165         1.037437890       -0.1445997814    
AX        0.7754556516         1.784953013       -0.4272633604    
AX       -0.4359543661        0.3500007239        0.5016024738E-01
AX        -1.600777439        0.5056773375        0.8535515336E-01
AX       -0.2257171027         1.471754913        0.5675216340E-01
AX       -0.6115116484       -0.7258220703        0.1532596087    
AX        -1.734538190       -0.5910499201        0.1104357458    
AX       -0.6736606714        -1.824185501        0.1368730076    
AX        0.4171625795       -0.3213729176       -0.1158316483E-02
AX         1.374055346       -0.9088911362       -0.6947474579E-02
AX        0.3257563037        -1.375054471       -0.3088541711E-01
AX       -0.7379065580E-01   -0.2437667350        0.9476053108    
AX         1.142633467        0.2474671614        0.5926268354    
AX        -1.131227341       -0.7322774156E-01    0.8708856660    
AX        0.1547344445        0.7965344461        0.8646553473    
AX       -0.1501232522        -1.320278496        0.9801355618    
AX        0.9631904246         1.457367026        0.6224432094    
AX       -0.9155693748         1.005410663        0.7987308029    
AX        -1.257188926        -1.217916610        0.8777877933    
AX        0.8438474581       -0.7898275108        0.9203767754    
AX        0.2639012286        0.1462080057       -0.9436861027    
AX         1.308549941        0.5310788220E-01   -0.5172037734    
AX        -1.090918639       -0.1337223567       -0.6631824077    
AX        0.1423317446E-01     1.206977232        -1.008234531    
AX       -0.2554656088       -0.8124567253       -0.8482151389    
AX         1.070180210        0.9440602566        -1.111054496    
AX       -0.9757970637        0.9936060485       -0.6479102529    
AX        -1.235745159        -1.246094027       -0.6153189805    
AX        0.8062100714       -0.8380220474       -0.9397732729    
AX        0.6883261392        0.1820856125         1.598304976    
AX       -0.4901439517        0.4170154825         1.683332298    
AX       -0.7684650636       -0.6777240648         1.700710934    
AX        0.2954931950       -0.8046656263         1.871156570    
AX        0.3564735651        0.6617516707        -1.921782055    
AX       -0.6244554880        0.3704364096        -1.511276931    
AX        0.1241217259       -0.4500193255        -1.828720100    
AX         1.149143152       -0.4183819021E-01    -1.612579716    
    38
Energy=    -168.302199714616    
AX        0.5573616046        0.7637097177       -0.1424761594    
AX         1.620100715         1.037940440       -0.1478260055    
AX        0.7749717547         1.785387932       -0.4277418465    
AX       -0.4370464144        0.3501791330        0.5148253996E-01
AX        -1.599216139        0.5044493249        0.8336445629E-01
AX       -0.2236928307         1.471893578        0.5814865134E-01
AX       -0.6105968992       -0.7268429750        0.1529913186    
AX        -1.730814440       -0.5909427368        0.1048042228    
AX       -0.6712159058        -1.825356954        0.1381105913    
AX        0.4176969939       -0.3207034525        0.4291645658E-03
AX         1.377993579       -0.9053203026       -0.3114179500E-02
AX        0.3287276525        -1.375323684       -0.2623647209E-01
AX       -0.7540590905E-01   -0.2448727292        0.9477247963    
AX         1.146584321        0.2470344599        0.5899538957    
AX        -1.132171847       -0.7288783150E-01    0.8709403996    
AX        0.1562348910        0.7940844917        0.8644786331    
AX       -0.1517994057        -1.321558009        0.9822689351    
AX        0.9647356828         1.454489376        0.6210117815    
AX       -0.9152254084         1.005136338        0.7991391870    
AX        -1.259467007        -1.217311632        0.8756304465    
AX        0.8418313819       -0.7914089967        0.9215253695    
AX        0.2558696431        0.1450844697       -0.9417353724    
AX         1.305314792        0.5448042337E-01   -0.5174800325    
AX        -1.083073137       -0.1335696438       -0.6670132180    
AX        0.1365945656E-01     1.207575964        -1.009533525    
AX       -0.2521732101       -0.8186884928       -0.8475182318    
AX         1.067195509        0.9443027124        -1.112805439    
AX       -0.9746207654        0.9984777511       -0.6443551506    
AX        -1.233583325        -1.248602668       -0.6153004507    
AX        0.8085510889       -0.8389952913       -0.9355139001    
AX        0.6917883315        0.1796011326         1.594896413    
AX       -0.4895748595        0.4172131882         1.683886645    
AX       -0.7721733124       -0.6781218852         1.701010495    
AX        0.2919427319       -0.8028279421         1.872459380    
AX        0.3557766957        0.6622097171        -1.923475742    
AX       -0.6276133544        0.3828353863        -1.514790985    
AX        0.1204089308       -0.4503636159        -1.827716979    
AX         1.142718414       -0.4238669433E-01    -1.609623634    
    38
Energy=    -168.297076415858    
AX        0.5567249963        0.7634932925       -0.1434931871    
AX         1.621210534         1.036481580       -0.1490683261    
AX        0.7761397567         1.785817395       -0.4252663847    
AX       -0.4368410226        0.3495726560        0.5236591285E-01
AX        -1.597608287        0.5037809797        0.8222465764E-01
AX       -0.2246474957         1.470969583        0.5818496361E-01
AX       -0.6098731527       -0.7267660906        0.1530207531    
AX        -1.728717900       -0.5902293794        0.1027632929    
AX       -0.6696962179        -1.825595801        0.1384150611    
AX        0.4179007939       -0.3208713998       -0.4845280610E-03
AX         1.379944683       -0.9036565220       -0.1862835583E-02
AX        0.3314677003        -1.375661830       -0.2355753742E-01
AX       -0.7519807732E-01   -0.2451629907        0.9481752267    
AX         1.147207651        0.2459042227        0.5894125506    
AX        -1.131406637       -0.7316185381E-01    0.8708929708    
AX        0.1565425723        0.7948595073        0.8640620497    
AX       -0.1525029865        -1.321327608        0.9839545166    
AX        0.9675795429         1.451791339        0.6223204524    
AX       -0.9155780068         1.004800920        0.8006570954    
AX        -1.260081903        -1.216752466        0.8742776955    
AX        0.8408702867       -0.7928177573        0.9223253044    
AX        0.2491172811        0.1475740011       -0.9417535781    
AX         1.304085124        0.5493768024E-01   -0.5181207764    
AX        -1.077700208       -0.1338501643       -0.6697531800    
AX        0.1452671593E-01     1.210281261        -1.009928302    
AX       -0.2508092038       -0.8230951862       -0.8473110375    
AX         1.065415204        0.9442373221        -1.112609839    
AX       -0.9730774890        0.9991014601       -0.6453728751    
AX        -1.233013806        -1.249844710       -0.6150531168    
AX        0.8100875386       -0.8404721189       -0.9342799912    
AX        0.6922047468        0.1803908798         1.593964918    
AX       -0.4892593022        0.4160379534         1.683723100    
AX       -0.7745853685       -0.6785943952         1.701342570    
AX        0.2901301212       -0.7995450500         1.872648068    
AX        0.3540446235        0.6637289378        -1.924066891    
AX       -0.6301039749        0.3870064543        -1.518496012    
AX        0.1179946773       -0.4511777625        -1.826335836    
AX         1.137506488       -0.4218433949E-01    -1.607916925    
    38
Energy=    -168.291183149555    
AX        0.5581052032        0.7640038449       -0.1436452965    
AX         1.622551051         1.034321593       -0.1501520692    
AX        0.7785251156         1.785476857       -0.4225974175    
AX       -0.4360423877        0.3506655027        0.5530285513E-01
AX        -1.591435999        0.5057137058        0.7811453131E-01
AX       -0.2266166721         1.468773265        0.5747604114E-01
AX       -0.6062969343       -0.7266889484        0.1514381630    
AX        -1.728092529       -0.5844353173        0.9934584758E-01
AX       -0.6642873724        -1.823600368        0.1346252876    
AX        0.4182433984       -0.3197745054        0.2297638149E-02
AX         1.385320827       -0.8930685141        0.2809510452E-02
AX        0.3387604240        -1.375612203       -0.1766497454E-01
AX       -0.7558213257E-01   -0.2464911056        0.9501871299    
AX         1.148725603        0.2444315059        0.5885164733    
AX        -1.131392225       -0.7385072046E-01    0.8691830829    
AX        0.1580054508        0.7937351129        0.8647751928    
AX       -0.1550634566        -1.322853306        0.9858803422    
AX        0.9715325710         1.448821030        0.6231666139    
AX       -0.9145744394         1.004605222        0.8032448230    
AX        -1.259230556        -1.215315976        0.8693204859    
AX        0.8394916525       -0.7957087823        0.9234418617    
AX        0.2366470200        0.1452589477       -0.9373316523    
AX         1.302255169        0.5625154081E-01   -0.5216936507    
AX        -1.068864272       -0.1355568185       -0.6725731261    
AX        0.1534081294E-01     1.217038887        -1.010765677    
AX       -0.2495221995       -0.8372632940       -0.8477953431    
AX         1.064241660        0.9454249318        -1.113375994    
AX       -0.9694935177        0.9960939192       -0.6491734168    
AX        -1.235974944        -1.249760442       -0.6136583540    
AX        0.8098937790       -0.8395083562       -0.9289875521    
AX        0.6931433830        0.1792422029         1.593669530    
AX       -0.4901112279        0.4156122678         1.684783997    
AX       -0.7777528154       -0.6788576040         1.700949052    
AX        0.2868483825       -0.7993408108         1.875256744    
AX        0.3496796801        0.6641033808        -1.921824235    
AX       -0.6365272580        0.3913207880        -1.527561871    
AX        0.1099904986       -0.4503999329        -1.825983359    
AX         1.129559257       -0.4280749932E-01    -1.609001216    
    38
Energy=    -168.281022480349    
AX        0.5576061696        0.7621585747       -0.1432425263    
AX         1.624395032         1.031651353       -0.1503873667    
AX        0.7802731278         1.782729300       -0.4172130968    
AX       -0.4360765741        0.3521614900        0.5611885616E-01
AX        -1.587937394        0.5056530520        0.7558339415E-01
AX       -0.2280277534         1.467699708        0.5699189233E-01
AX       -0.6027300981       -0.7258171368        0.1495772584    
AX        -1.726067477       -0.5820823613        0.9554313376E-01
AX       -0.6589475652        -1.821217556        0.1301488817    
AX        0.4189535266       -0.3198741323        0.1796861620E-02
AX         1.390303055       -0.8824624616        0.9459964915E-02
AX        0.3461241847        -1.375691309       -0.9408778615E-02
AX       -0.7426374089E-01   -0.2451344768        0.9501797220    
AX         1.150046575        0.2397285150        0.5871465801    
AX        -1.129982130       -0.7455400133E-01    0.8672448325    
AX        0.1563832505        0.7955051611        0.8651017535    
AX       -0.1564083278        -1.322122583        0.9885728026    
AX        0.9774363288         1.440846660        0.6271350905    
AX       -0.9161640350         1.004355755        0.8047579817    
AX        -1.258577144        -1.214459950        0.8648638073    
AX        0.8376017438       -0.7987906156        0.9275296858    
AX        0.2256735529        0.1440075854       -0.9357386548    
AX         1.300766400        0.5801151155E-01   -0.5266612345    
AX        -1.058034848       -0.1365109527       -0.6762173909    
AX        0.1727315745E-01     1.217964139        -1.009783255    
AX       -0.2462585388       -0.8505077950       -0.8485380637    
AX         1.062986815        0.9442851288        -1.114544283    
AX       -0.9675756158        0.9949634748       -0.6525062218    
AX        -1.237735965        -1.249518979       -0.6144282707    
AX        0.8127786603       -0.8408891117       -0.9252347394    
AX        0.6941473773        0.1826559768         1.593886646    
AX       -0.4908899015        0.4147378932         1.684778440    
AX       -0.7801181993       -0.6787873322         1.701121696    
AX        0.2841614787       -0.7948184610         1.876783706    
AX        0.3457286141        0.6659755880        -1.920395621    
AX       -0.6424253089        0.3989022268        -1.532860315    
AX        0.9545163113E-01   -0.4451729727        -1.826281750    
AX         1.120129935       -0.4558090669E-01    -1.610881419    
    38
Energy=    -168.272796786947    
AX        0.5573537448        0.7614193303       -0.1442604753    
AX         1.624306901         1.031487020       -0.1515078574    
AX        0.7814138831         1.781409769       -0.4190662095    
AX       -0.4350126123        0.3534570141        0.5719423739E-01
AX        -1.585739115        0.5067693507        0.7486299713E-01
AX       -0.2262824640         1.468721474        0.5757709936E-01
AX       -0.6015019178       -0.7240446939        0.1487491703    
AX        -1.724938172       -0.5791275984        0.9405174295E-01
AX       -0.6537749756        -1.817456865        0.1216878782    
AX        0.4190853713       -0.3198297746        0.3725213493E-02
AX         1.394595254       -0.8752244131        0.1533651190E-01
AX        0.3537015389        -1.375046159       -0.4523750588E-02
AX       -0.7441639698E-01   -0.2451351833        0.9513248467    
AX         1.148729076        0.2408056314        0.5881723485    
AX        -1.130024771       -0.7402823618E-01    0.8668405997    
AX        0.1571581471        0.7950354295        0.8663639309    
AX       -0.1567880449        -1.321896248        0.9871794876    
AX        0.9780759109         1.441264558        0.6261484489    
AX       -0.9151135510         1.005548232        0.8064562949    
AX        -1.257758412        -1.216150263        0.8596561850    
AX        0.8380408480       -0.7976015848        0.9302699759    
AX        0.2196545806        0.1394316917       -0.9343015537    
AX         1.300484738        0.5887710246E-01   -0.5277610951    
AX        -1.051582623       -0.1358681809       -0.6777391228    
AX        0.1832291959E-01     1.216319399        -1.009029679    
AX       -0.2446070549       -0.8600569380       -0.8471672388    
AX         1.063404215        0.9433557213        -1.116631178    
AX       -0.9665314209        0.9960496853       -0.6530089636    
AX        -1.240593256        -1.247132998       -0.6168815496    
AX        0.8146920474       -0.8422520524       -0.9196592847    
AX        0.6931373838        0.1805103625         1.596474619    
AX       -0.4920940458        0.4138396419         1.685121709    
AX       -0.7812705853       -0.6807289065         1.698990109    
AX        0.2821561373       -0.7969444717         1.877751388    
AX        0.3428553929        0.6650813859        -1.920133435    
AX       -0.6453762747        0.4030523839        -1.534289670    
AX        0.8329252669E-01   -0.4432353179        -1.826701201    
AX         1.112945075       -0.5067530026E-01    -1.611272531    
    38
Energy=    -168.265413615813    
AX        0.5568154901        0.7597206733       -0.1446614384    
AX         1.623964966         1.030390109       -0.1545079254    
AX        0.7823949970         1.778872340       -0.4211517171    
AX       -0.4351098859        0.3561742378        0.6019004453E-01
AX        -1.584299252        0.5063294072        0.7411009082E-01
AX       -0.2244793336         1.470506392        0.5938062841E-01
AX       -0.6014825839       -0.7216458186        0.1483514441    
AX        -1.721434639       -0.5790606864        0.8971564371E-01
AX       -0.6488888828        -1.813052795        0.1124826274    
AX        0.4188070848       -0.3213246355        0.4174909582E-02
AX         1.398128317       -0.8709939751        0.2108050524E-01
AX        0.3618790403        -1.376427527        0.1103115838E-02
AX       -0.7375628029E-01   -0.2431982752        0.9510613369    
AX         1.146215146        0.2408470453        0.5897997352    
AX        -1.130557126       -0.7421612623E-01    0.8676260375    
AX        0.1573018308        0.7976999656        0.8680167319    
AX       -0.1568307015        -1.320266868        0.9856536180    
AX        0.9806263354         1.438235582        0.6259423375    
AX       -0.9157933693         1.006629612        0.8073036487    
AX        -1.257244885        -1.219218515        0.8553668186    
AX        0.8391250598       -0.7958385999        0.9328696608    
AX        0.2120379426        0.1379480129       -0.9315915574    
AX         1.298346079        0.5735165434E-01   -0.5284586913    
AX        -1.042807539       -0.1357184262       -0.6803109095    
AX        0.1703033378E-01     1.212541619        -1.008873634    
AX       -0.2388297172       -0.8683290415       -0.8431579776    
AX         1.062378144        0.9397733287        -1.118602789    
AX       -0.9677475154        0.9989604288       -0.6500208488    
AX        -1.240449990        -1.244184453       -0.6245886906    
AX        0.8194470127       -0.8473939517       -0.9143990724    
AX        0.6924190606        0.1832616171         1.598500311    
AX       -0.4925141422        0.4129662662         1.686624350    
AX       -0.7824436716       -0.6833768281         1.695907370    
AX        0.2813673830       -0.7952500899         1.878819799    
AX        0.3421410617        0.6637848124        -1.921022568    
AX       -0.6482438834        0.4139966276        -1.536740546    
AX        0.6844018991E-01   -0.4399940154        -1.825357408    
AX         1.104047924       -0.5649910428E-01    -1.610634991    
    38
Energy=    -168.258218363285    
AX        0.5557541124        0.7596548791       -0.1444997841    
AX         1.623379721         1.030412284       -0.1585164309    
AX        0.7828030070         1.777973022       -0.4231039473    
AX       -0.4352413752        0.3576048609        0.6259242371E-01
AX        -1.582856958        0.5065417578        0.7461705343E-01
AX       -0.2226382049         1.471800859        0.6081996739E-01
AX       -0.6024918106       -0.7190731682        0.1493185287    
AX        -1.719041747       -0.5775104900        0.8641244403E-01
AX       -0.6440634514        -1.808348831        0.1018363771    
AX        0.4186962556       -0.3220105177        0.5704253465E-02
AX         1.401890822       -0.8693734823        0.2580238516E-01
AX        0.3695109550        -1.377837285        0.3951625924E-02
AX       -0.7489686862E-01   -0.2416263576        0.9518806501    
AX         1.146785653        0.2430973050        0.5892581345    
AX        -1.132202730       -0.7268276479E-01    0.8689118696    
AX        0.1569282950        0.7991714509        0.8705659749    
AX       -0.1554356835        -1.319050111        0.9824903987    
AX        0.9826529194         1.436916165        0.6246371224    
AX       -0.9159843683         1.008165731        0.8101524373    
AX        -1.257739745        -1.223732268        0.8498048894    
AX        0.8395091254       -0.7915628848        0.9361436436    
AX        0.2053652409        0.1353027964       -0.9291269627    