   220
 Energy=    -454.473009584741
N            -4.7295903230       -4.3859993190        7.1862413940
H1           -4.9561330180       -4.7845418440        6.2827807180
H2           -5.1432116420       -3.4671404860        7.2415760650
H3           -5.1348494470       -4.9673798070        7.9057927060
CA           -3.2572018370       -4.3097831470        7.3733090180
HA           -3.0578001730       -3.7982685330        8.3162312950
CB           -2.6385456000       -5.7117523050        7.4632972520
HB           -2.7735197440       -6.2412556430        6.5176984130
HB           -1.5699469180       -5.6282536390        7.6706809130
OG           -3.2630298580       -6.4416705280        8.5086868330
HG           -2.8178911750       -7.3024146510        8.5812573450
C            -2.5796986840       -3.5178981880        6.2544361760
O            -3.0986839620       -3.4465100830        5.1403330530
N            -1.4045564250       -2.9363110850        6.5180176610
H            -1.0201474240       -3.0072600760        7.4516367340
CA           -0.5568157347       -2.3141702860        5.4872132760
HA           -1.1948401150       -1.7757238080        4.7838822050
CB            0.3854521616       -1.2845520440        6.1265112300
HB            0.8950587967       -1.7360652580        6.9794999780
HB            1.1513334240       -1.0153741450        5.3989397170
CG           -0.2799403121       -0.0123957468        6.5530582600
CD           -0.6151072314        0.3274554284        7.8188070830
HD           -0.4347699909       -0.2856100999        8.6975863970
NE           -1.2323898630        1.5651333320        7.8186170380
HE           -1.5741096900        2.0171872230        8.6612079690
CE           -1.3238636140        2.0875400100        6.5451700080
CZ           -1.8574962160        3.2789211530        6.0308084320
HZ           -2.3209084980        3.9987306320        6.6921836440
CH           -1.7760481960        3.5250775670        4.6488916500
HH           -2.1794444140        4.4420959780        4.2354869700
CZ           -1.1609786510        2.5830001480        3.8036940730
HZ           -1.0899098650        2.7843310390        2.7417795860
CE           -0.6342707747        1.3865612810        4.3304512310
HE           -0.1595533407        0.6710570619        3.6747374540
CD           -0.7069471655        1.1052190930        5.7129676870
C             0.2271481355       -3.3622915800        4.6797722450
O             0.6613673981       -4.3843772680        5.2178706280
N             0.4204516654       -3.0915387760        3.3859249310
H             0.0078909605       -2.2426827610        3.0145635260
CA            1.1323158360       -3.9536616340        2.4225184170
HA            1.7343517480       -4.6801839770        2.9702774870
CB            0.1543241991       -4.7418917050        1.5261925650
HB            0.7374672885       -5.3987374060        0.8796330740
CG           -0.8207648819       -5.6096995840        2.3232236630
HG           -1.5095180780       -4.9879613950        2.8963460820
HG           -1.3921586180       -6.2363330240        1.6386140760
HG           -0.2646859706       -6.2550631760        3.0036917690
OG           -0.6210680954       -3.8901482160        0.7082068000
HG           -0.9561264766       -3.1669988920        1.2661925330
C             2.0863245930       -3.1336687250        1.5479036310
O             1.7846596440       -1.9874300130        1.2103378510
N             3.2302205470       -3.7118467450        1.1723382750
H             3.4136468240       -4.6561717910        1.4814225970
CA            4.2255324650       -3.0978374440        0.2813592607
HA            4.0646886820       -2.0195156370        0.2422416507
CB            5.6290039120       -3.3337133020        0.8536283100
HB            5.7058528560       -2.8037568620        1.8020891580
HB            5.7441247260       -4.3982360170        1.0650679770
CG            6.7773353730       -2.9019388530       -0.0100379103
CD            7.7008973970       -3.7309778810       -0.5480873549
HD            7.7183250210       -4.8102253750       -0.4196573435
NE            8.6310152400       -2.9970761090       -1.2578696130
HE            9.4365145880       -3.4142315620       -1.7149572540
CE            8.3457596240       -1.6490830530       -1.2245826450
CZ            8.9736127130       -0.5248740275       -1.7810466160
HZ            9.8718620440       -0.6382189791       -2.3731976660
CH            8.4247733730        0.7478993787       -1.5506187770
HH            8.8998752200        1.6290895010       -1.9654124310
CZ            7.2593968040        0.8762620071       -0.7734363279
HZ            6.8453059920        1.8598385150       -0.5903861328
CE            6.6336301620       -0.2614469300       -0.2260912766
HE            5.7424070340       -0.1482992016        0.3743255358
CD            7.1602354080       -1.5545655540       -0.4330141358
C             4.0958719090       -3.6425699210       -1.1478531110
O             3.9710317870       -4.8536541650       -1.3497699900
N             4.1370260150       -2.7516775860       -2.1429330350
H             4.1766438750       -1.7674388610       -1.8920006090
CA            3.8835198190       -3.0735658250       -3.5604054900
HA            3.6649707000       -4.1391175300       -3.6462784700
CB            2.6252124820       -2.3273462980       -4.0466991170
HB            2.8095778930       -1.2520392170       -4.0343427440
HB            2.4114989770       -2.6304603320       -5.0724240120
CG            1.3902917830       -2.6433897470       -3.1889685740
HG            1.5017722070       -2.1932767280       -2.1995290220
HG            1.3146597390       -3.7260821350       -3.0595659060
CD            0.1072636197       -2.1130026470       -3.8423487850
OE           -0.0968563307       -0.8746728137       -3.8610136360
OE           -0.7233705798       -2.9352497860       -4.3007591880
C             5.1096554220       -2.8454309450       -4.4731278790
O             4.9731395590       -2.6801081670       -5.6880994260
N             6.3192981900       -2.8028607780       -3.8974274880
H             6.3723343380       -2.9679903580       -2.8997560030
CA            7.5835733710       -2.5826808160       -4.6238298000
HA            8.4129171280       -2.8988815370       -3.9929475050
HA            7.5914700710       -3.2049534100       -5.5193611670
C             7.8457623830       -1.1291318620       -5.0546255290
O             8.8449390560       -0.8561155525       -5.7249628100
N             6.9559713420       -0.2008183105       -4.6850911820
H             6.1999908430       -0.5221495361       -4.1027223290
CA            7.0277823720        1.2310478630       -5.0100730110
HA            8.0741494800        1.5441572300       -5.0276335600
CB            6.4188894500        1.4251529240       -6.4134017610
HB            6.9633823540        0.8156533658       -7.1351372240
HB            5.3789189430        1.0962171060       -6.4130260140
CG            6.4659363590        2.8733664270       -6.8747875520
OD            5.4839733940        3.6016714860       -6.8159923310
ND            7.6043482790        3.3414502870       -7.3385671320
HD            7.6425742760        4.3026288030       -7.6457375660
HD            8.4145175290        2.7419067810       -7.4005492640
C             6.3002943390        2.1142461810       -3.9720839700
O             6.7766960090        3.2070871180       -3.6513486640
N             5.1625180340        1.6368324410       -3.4422486670
H             4.8286569680        0.7446255928       -3.7759258760
CA            4.3143686860        2.3280552260       -2.4539231310
HA            4.9315028470        3.0447452410       -1.9074975860
CB            3.2150631290        3.1260661630       -3.1868115290
HB            2.6351028260        3.6873280990       -2.4519035300
HB            3.7018846870        3.8511660220       -3.8417930030
CG            2.2494048550        2.2694887480       -4.0303786640
HG            2.8145821880        1.7000000080       -4.7691798340
HG            1.7109252750        1.5769230270       -3.3827264670
CD            1.2457900810        3.1725492160       -4.7649298310
HD            0.6206695107        3.6958613210       -4.0388371110
HD            1.8047206400        3.9222899500       -5.3280835180
CE            0.3573547740        2.4148262230       -5.7633714780
HE            0.9911909718        1.8224328520       -6.4301522080
HE           -0.1622804869        3.1567415170       -6.3774929570
NZ           -0.6491169334        1.5440682110       -5.1007823790
HZ           -1.1847772660        2.0535064690       -4.4108077150
HZ           -0.2207936586        0.7388293051       -4.6404915840
HZ           -1.3000553120        1.1696628200       -5.7781986840
C             3.7278530490        1.3749688920       -1.4041953840
O             3.6485002720        0.1635038595       -1.6272904970
N             3.2957359030        1.9404513290       -0.2760109387
H             3.4012755070        2.9399638890       -0.1855324187
CA            2.5168662770        1.2512247980        0.7600770391
HA            2.7150744260        0.1828461257        0.6942282452
CB            2.9551049360        1.7100998270        2.1570138870
HB            2.9482333470        2.8006174220        2.1982449480
HB            2.2182556210        1.3574090620        2.8798102970
CG            4.2927100510        1.2057019470        2.6067730470
CD            5.4764197710        1.8406309910        2.4469354940
HD            5.6053453770        2.8052385190        1.9641361420
NE            6.4923141580        1.0729995760        2.9865094790
HE            7.4683251430        1.3515809650        2.9714744470
CE            6.0097323080       -0.0984431046        3.5317961480
CZ            6.6221351020       -1.1770393300        4.1885774160
HZ            7.6930214130       -1.1851497180        4.3407672250
CH            5.8256061690       -2.2414839960        4.6469934190
HH            6.2821173110       -3.0816482140        5.1570398890
CZ            4.4334525040       -2.2144142390        4.4417884210
HZ            3.8230659040       -3.0359667150        4.7972725710
CE            3.8307937930       -1.1266832710        3.7788826810
HE            2.7616393050       -1.1129718740        3.6263169230
CD            4.6010702980       -0.0413573654        3.3056960230
C             1.0078662880        1.4626488250        0.5582839623
O             0.5623916510        2.5791032850        0.2743585977
N             0.2246448182        0.3959661873        0.7428241992
H             0.6817105388       -0.4846302263        0.9624579430
CA           -1.2318167730        0.3574922443        0.5085595705
HA           -1.6344804940        1.3704826090        0.5341972685
CB           -1.5206631750       -0.2352690936       -0.8854796149
HB           -1.0692835060       -1.2266638050       -0.9515806146
CG           -3.0091862750       -0.3464963668       -1.2216206810
HG           -3.4949097110        0.6224622335       -1.0993126060
HG           -3.1290732350       -0.6806210186       -2.2529685980
HG           -3.4896171940       -1.0758979880       -0.5706055689
OG           -0.9537773878        0.5867136232       -1.8822468040
HG           -0.6499915839       -0.0139634371       -2.6009115360
C            -1.9345664330       -0.4646022245        1.5919606350
O            -1.4907609480       -1.5658010450        1.9240350290
N            -3.0426719540        0.0431118846        2.1368287950
H            -3.3604546700        0.9516473463        1.8285135030
CA           -3.8794763570       -0.6718954047        3.1096233180
HA           -3.2353716290       -1.2376363840        3.7830089740
CB           -4.6527174860        0.3444724708        3.9588650950
HB           -3.9341365400        0.9833183819        4.4747624660
HB           -5.2419649740        0.9826454561        3.2980138170
CG           -5.5714823910       -0.2481223348        4.9849669750
CD           -6.8836669120       -0.5214612291        4.7996670430
HD           -7.4329248730       -0.3417406624        3.8788746100
NE           -7.4173555620       -1.0552965200        5.9573474500
HE           -8.3932015240       -1.3230077780        6.0489633680
CE           -6.4714987010       -1.1472157370        6.9554553440
CZ           -6.5171414460       -1.6051478630        8.2812266880
HZ           -7.4466410100       -1.9693037490        8.7002291360
CH           -5.3479051290       -1.5655398200        9.0612460540
HH           -5.3694965430       -1.8989086110       10.0929059000
CZ           -4.1507937530       -1.0824808080        8.5014787510
HZ           -3.2525993150       -1.0428668610        9.1070663770
CE           -4.1164316730       -0.6318208424        7.1666659130
HE           -3.1942510530       -0.2533145090        6.7489573430
CD           -5.2745489170       -0.6452884035        6.3598138720
C            -4.8258652880       -1.6615038260        2.4084339680
O            -5.5252775990       -1.2885590330        1.4599071440
N            -4.8538152200       -2.9178873080        2.8757420160
H            -4.2561712270       -3.1351853090        3.6685447170
CA           -5.6567519470       -4.0251135780        2.3151801950
HA           -6.4763337480       -3.6075977710        1.7260310340
CB           -4.7892428390       -4.8926837250        1.3767969680
HB           -5.4080357380       -5.6942664910        0.9692982017
HB           -3.9764947620       -5.3453167000        1.9477171750
CG           -4.1967721040       -4.0914941260        0.2054900472
HG           -3.4636464690       -3.3833809080        0.5928418800
HG           -4.9951084920       -3.5363526640       -0.2893780192
CD           -3.5106263260       -4.9914745650       -0.8294825602
HD           -4.2552008410       -5.6348972880       -1.3021498170
HD           -2.7588839590       -5.6105449120       -0.3374948535
CE           -2.8368398280       -4.1059288910       -1.8847153290
HE           -3.5878404320       -3.4395259190       -2.3203816550
HE           -2.0847669500       -3.4866584120       -1.3861209380
NZ           -2.1915320330       -4.9030178250       -2.9586633250
HZ           -1.5100328850       -5.5480577240       -2.5830010360
HZ           -2.8709106460       -5.4310222160       -3.4896141810
HZ           -1.7027889780       -4.2800173930       -3.6060345600
C            -6.3058036440       -4.8820832220        3.4118335140
O            -5.8448940160       -4.9232641170        4.5538057730
N            -7.3733314680       -5.5898673160        3.0796608090
HN           -7.7298845400       -5.5492647030        2.1382878340
HN           -7.8149959570       -6.1653087040        3.7786089390
   220
 Energy=    -452.432866810131
N            -4.7502231760       -4.2375731380        7.1912779910
H1           -4.9931261100       -4.6476023760        6.2972770310
H2           -5.1428528750       -3.3087738580        7.2327684490
H3           -5.1621803850       -4.7965390100        7.9246449360
CA           -3.2750494080       -4.1909518040        7.3649395700
HA           -3.0566046100       -3.6698089830        8.2983243970
CB           -2.6863262720       -5.6046014380        7.4711966010
HB           -2.8410859120       -6.1452706050        6.5349951800
HB           -1.6143888340       -5.5413855590        7.6682663020
OG           -3.3173942750       -6.3047284550        8.5328895820
HG           -2.8904849860       -7.1738176390        8.6149043460
C            -2.5899366350       -3.4306381880        6.2289255370
O            -3.1150574450       -3.3659258460        5.1172924150
N            -1.4019292670       -2.8682237160        6.4759205640
H            -1.0125842890       -2.9325879180        7.4079701060
CA           -0.5511107232       -2.2712724720        5.4328682360
HA           -1.1870974990       -1.7485578930        4.7157776250
CB            0.3896332215       -1.2272091170        6.0506674550
HB            0.9012529363       -1.6612091470        6.9115043550
HB            1.1540265390       -0.9708599640        5.3169212120
CG           -0.2765884177        0.0523028794        6.4537295340
CD           -0.6045409506        0.4188717796        7.7139002150
HD           -0.4189697596       -0.1753909531        8.6044276330
NE           -1.2221526790        1.6561740870        7.6910259970
HE           -1.5591297370        2.1259448900        8.5257993150
CE           -1.3202540020        2.1520439990        6.4074971000
CZ           -1.8565257590        3.3324452840        5.8710401860
HZ           -2.3148588230        4.0668586650        6.5197786430
CH           -1.7843804510        3.5484591180        4.4835770940
HH           -2.1899282730        4.4566397550        4.0531196630
CZ           -1.1758187360        2.5877038030        3.6548544510
HZ           -1.1118897220        2.7658616670        2.5883554430
CE           -0.6463902122        1.4025213260        4.2038609960
HE           -0.1767102479        0.6725251325        3.5606116070
CD           -0.7097859000        1.1513352890        5.5926279300
C             0.2347536504       -3.3372278420        4.6505641550
O             0.6642273905       -4.3498840600        5.2098807770
N             0.4355909027       -3.0908259010        3.3530031020
H             0.0265601330       -2.2483147270        2.9637205410
CA            1.1534056770       -3.9678180920        2.4070227510
HA            1.7645223670       -4.6763272670        2.9682137830
CB            0.1787362544       -4.7818744950        1.5304494830
HB            0.7646120859       -5.4420498590        0.8898025611
CG           -0.7800427620       -5.6481029320        2.3487154220
HG           -1.4748806630       -5.0254759500        2.9134638130
HG           -1.3456168270       -6.2958998270        1.6793083150
HG           -0.2115632695       -6.2725692050        3.0383865470
OG           -0.6127184256       -3.9510917550        0.7059290000
HG           -0.9472408408       -3.2207767990        1.2542802590
C             2.0952862180       -3.1557557900        1.5113793580
O             1.7887352340       -2.0105113560        1.1748421930
N             3.2329114460       -3.7356258510        1.1197204940
H             3.4208599820       -4.6790037090        1.4289803790
CA            4.2156739060       -3.1179215540        0.2165827063
HA            4.0547565750       -2.0393688780        0.1832561280
CB            5.6258266900       -3.3546485740        0.7719762448
HB            5.7108290420       -2.8345633020        1.7257135080
HB            5.7474231230       -4.4209206640        0.9706163036
CG            6.7627334390       -2.9086600680       -0.0989040586
CD            7.6630179300       -3.7303137140       -0.6855409557
HD            7.6668149560       -4.8137080990       -0.5971365932
NE            8.5898685670       -2.9840003610       -1.3866016830
HE            9.3798840180       -3.3954044490       -1.8748631330
CE            8.3248274870       -1.6342136940       -1.2989143800
CZ            8.9587970750       -0.4991127674       -1.8255319200
HZ            9.8421352630       -0.6032818313       -2.4413275470
CH            8.4358495270        0.7720986882       -1.5342913830
HH            8.9162117770        1.6612605200       -1.9253347540
CZ            7.2897061610        0.8882266172       -0.7271595716
HZ            6.8957275210        1.8702478990       -0.4973414797
CE            6.6574061740       -0.2600412088       -0.2102167816
HE            5.7812662190       -0.1564981597        0.4136734620
CD            7.1583018780       -1.5521478160       -0.4782651721
C             4.0671363970       -3.6571438100       -1.2135687220
O             3.9383898960       -4.8679353970       -1.4147865150
N             4.0957241800       -2.7654529350       -2.2083737230
H             4.1396951190       -1.7814651800       -1.9571822040
CA            3.8534961940       -3.0919386560       -3.6278099150
HA            3.6997031860       -4.1684103350       -3.7175223740
CB            2.5487462330       -2.4260762600       -4.1102052330
HB            2.6559076670       -1.3406373850       -4.0791981150
HB            2.3630630900       -2.7278051530       -5.1417867420
CG            1.3340390160       -2.8446815570       -3.2676150730
HG            1.3843294680       -2.3645455960       -2.2871411310
HG            1.3646321880       -3.9262510880       -3.1129258340
CD            0.0131236445       -2.4661652320       -3.9557962980
OE           -0.3231634244       -1.2580890370       -4.0080943690
OE           -0.7209039388       -3.3831811690       -4.4001478700
C             5.0632595600       -2.7970906790       -4.5436890570
O             4.9105355090       -2.5785906100       -5.7482873910
N             6.2794731550       -2.7698924390       -3.9810492690
H             6.3460644210       -2.9791711080       -2.9925164940
CA            7.5374037850       -2.5548511450       -4.7203386080
HA            8.3693397440       -2.9008536630       -4.1089079360
HA            7.5213898100       -3.1582477740       -5.6286073500
C             7.8249998450       -1.0994848030       -5.1263522770
O             8.8307063080       -0.8342742172       -5.7900252790
N             6.9537947860       -0.1603343548       -4.7402849750
H             6.1903929060       -0.4771516687       -4.1651692370
CA            7.0600591120        1.2756700500       -5.0375222190
HA            8.1140990100        1.5616444630       -5.0584662780
CB            6.4453998350        1.5143947910       -6.4312381210
HB            6.9658308820        0.9032967122       -7.1692033530
HB            5.3962593020        1.2160800690       -6.4278253860
CG            6.5315035680        2.9693811630       -6.8647689800
OD            5.5727240450        3.7256452010       -6.7812183610
ND            7.6788794200        3.4122538460       -7.3312345470
HD            7.7430740160        4.3777563960       -7.6199675010
HD            8.4698996280        2.7899899260       -7.4134115550
C             6.3670769970        2.1561952000       -3.9746433300
O             6.8781640680        3.2264461590       -3.6318840940
N             5.2205008150        1.6991898030       -3.4457828820
H             4.8576621070        0.8255944369       -3.7979418790
CA            4.4134502290        2.3798278150       -2.4168534140
HA            5.0659965960        3.0433277850       -1.8450870710
CB            3.3410758690        3.2544967600       -3.1009497690
HB            2.8400158270        3.8590762450       -2.3428020080
HB            3.8401175340        3.9388231860       -3.7897665090
CG            2.2772053770        2.4531976970       -3.8747640370
HG            2.7641232010        1.8169200950       -4.6149636610
HG            1.7211077650        1.8243536190       -3.1790586230
CD            1.3047396050        3.3972494490       -4.5986010280
HD            0.8015115413        4.0412580410       -3.8746915460
HD            1.8783860370        4.0320850060       -5.2765407010
CE            0.2621515717        2.6355327880       -5.4305993270
HE            0.7779619885        1.9021509700       -6.0581597650
HE           -0.2327709195        3.3490648320       -6.0967525200
NZ           -0.7605777885        1.9622312780       -4.5858598490
HZ           -1.2819414990        2.6319801360       -4.0351461150
HZ           -0.3420239059        1.2949401260       -3.9488788620
HZ           -1.4233064940        1.4555610140       -5.1591480190
C             3.7960600670        1.3996371420       -1.4100492450
O             3.6997930700        0.1983397963       -1.6771319460
N             3.3478626200        1.9339980020       -0.2730033894
H             3.4695495090        2.9275858670       -0.1452309942
CA            2.5336333470        1.2206662000        0.7178100436
HA            2.7492808410        0.1559292911        0.6425777548
CB            2.9138987950        1.6601039430        2.1377894930
HB            2.8668024870        2.7483647290        2.2043984540
HB            2.1715420500        1.2626167310        2.8307048760
CG            4.2581290780        1.1924917700        2.6085258870
CD            5.4245135150        1.8644136390        2.4746603490
HD            5.5313044960        2.8394885910        2.0077457610
NE            6.4552918220        1.1191739550        3.0173880670
HE            7.4227006030        1.4266531190        3.0201987470
CE            6.0011724930       -0.0761240266        3.5343758840
CZ            6.6373845690       -1.1487136450        4.1782348290
HZ            7.7063973970       -1.1290385140        4.3420929060
CH            5.8670100170       -2.2437446570        4.6084396080
HH            6.3420931610       -3.0797874870        5.1081936780
CZ            4.4768941580       -2.2526700120        4.3883670600
HZ            3.8866741670       -3.0977350280        4.7221255590
CE            3.8502234430       -1.1705597130        3.7386584210
HE            2.7827845050       -1.1845806760        3.5745451670
CD            4.5939130500       -0.0551370429        3.2937743210
C             1.0302115900        1.4109424850        0.4554698870
O             0.5829109747        2.5096101530        0.1114010842
N             0.2524763005        0.3432830086        0.6568001669
H             0.7110619107       -0.5221930874        0.9274447000
CA           -1.1946596370        0.2710144462        0.3816169811
HA           -1.6118652880        1.2772331130        0.3323153423
CB           -1.4362841100       -0.4179128999       -0.9760172985
HB           -1.0137987350       -1.4233893990       -0.9449612821
CG           -2.9120945900       -0.5134444542       -1.3662055520
HG           -3.3711048250        0.4757602937       -1.3422569200
HG           -3.0009726840       -0.9263123128       -2.3718134150
HG           -3.4417785570       -1.1737272870       -0.6802332018
OG           -0.8024896310        0.3007983922       -2.0112767490
HG           -0.6550255943       -0.3496187336       -2.7400834660
C            -1.9136097420       -0.5007497811        1.4911030790
O            -1.4743578230       -1.5864504230        1.8760542720
N            -3.0292729540        0.0289775167        1.9982888080
H            -3.3428240420        0.9232945227        1.6470571650
CA           -3.8772659990       -0.6478410818        2.9886351910
HA           -3.2408613190       -1.1910755900        3.6877449540
CB           -4.6548015090        0.3991579661        3.7952874700
HB           -3.9389953230        1.0558849670        4.2921297780
HB           -5.2396955690        1.0130177210        3.1080823590
CG           -5.5791937630       -0.1561119126        4.8371128510
CD           -6.8944394350       -0.4198202456        4.6597286060
HD           -7.4422897040       -0.2589215967        3.7346263410
NE           -7.4332230110       -0.9163239169        5.8315750030
HE           -8.4119049190       -1.1706620200        5.9307313820
CE           -6.4878618500       -0.9913900897        6.8316063030
CZ           -6.5380854700       -1.4116250760        8.1696402680
HZ           -7.4715615080       -1.7529421740        8.5989037350
CH           -5.3679765110       -1.3641278490        8.9479086100
HH           -5.3928620730       -1.6683375590        9.9884662180
CZ           -4.1655902260       -0.9110505691        8.3745419810
HZ           -3.2666128930       -0.8652024991        8.9785259170
CE           -4.1267380500       -0.4982029468        7.0276760570
HE           -3.2004100700       -0.1424193465        6.5993081140
CD           -5.2854365720       -0.5204509884        6.2218535580
C            -4.8197873100       -1.6597186260        2.3147156860
O            -5.5047294350       -1.3215449080        1.3428816690
N            -4.8620575380       -2.8957350910        2.8325322450
H            -4.2758730870       -3.0841326560        3.6411279610
CA           -5.6703726860       -4.0180572620        2.3117498040
HA           -6.4785083020       -3.6188703710        1.6947488890
CB           -4.8015890280       -4.9356214760        1.4240623950
HB           -5.4226606580       -5.7533607810        1.0537615660
HB           -3.9950555110       -5.3635940280        2.0223979630
CG           -4.1970756180       -4.1988560430        0.2170535039
HG           -3.4584479470       -3.4787753470        0.5706804975
HG           -4.9880862100       -3.6624818150       -0.3092677673
CD           -3.5180527620       -5.1610130070       -0.7656182367
HD           -4.2686805920       -5.8235253020       -1.2009331480
HD           -2.7730678190       -5.7587575990       -0.2384943048
CE           -2.8341424170       -4.3482329350       -1.8714862170
HE           -3.5764836750       -3.6972942050       -2.3438012930
HE           -2.0711550020       -3.7124838840       -1.4116650780
NZ           -2.2057779240       -5.2186142590       -2.8979382920
HZ           -1.5305309830       -5.8486074260       -2.4870962720
HZ           -2.8954225340       -5.7695678680       -3.3909679020
HZ           -1.7130504620       -4.6455157900       -3.5869084940
C            -6.3410396490       -4.8186972660        3.4374203500
O            -5.8870706430       -4.8224844100        4.5828293570
N            -7.4186932950       -5.5209079200        3.1268320610
HN           -7.7690861840       -5.5119436380        2.1823172270
HN           -7.8743334150       -6.0602183110        3.8453485780
   220
 Energy=    -453.136825297668
N            -4.8053889850       -4.1109888170        7.1165865640
H1           -5.0374754230       -4.5473917660        6.2322601160
H2           -5.1992537770       -3.1818243200        7.1259339470
H3           -5.2255615890       -4.6485312610        7.8612235670
CA           -3.3324424820       -4.0574851560        7.3062116780
HA           -3.1255821160       -3.5085267530        8.2261966710