    24
Energy=    -193.671270772554    
T4        -1.193608753        0.6191146312        -1.656888866    
T4        -1.873682745         1.078014113        -2.149983656    
T4        -1.421285529        0.7673533369       -0.7390542338    
T4        -1.309811803        0.6968356442        -1.602517042    
T4        -1.124655175        -1.799831330       -0.1253598265    
T4        -1.447443149        -1.166753940        0.5159301089    
T4        -1.118941853        -1.320505657       -0.9538802529    
T4        -1.165244555        -1.657430317       -0.1493275882    
T4        -1.560198768        0.7186734242         1.083202883    
T4        -1.970914258         1.178065968         1.815666613    
T4       -0.6204083090        0.7986769095         1.246375110    
T4        -1.492470789        0.7877226237         1.197855091    
T4         1.437165851        -1.860945910        0.7702209829    
T4         1.629898261        -2.718845518         1.148499083    
T4        0.5517259257        -1.947797539        0.4171136711    
T4         1.348490932        -1.981885467        0.7734431474    
T4         1.108769376        0.8168784671         1.293803901    
T4         1.360438478       -0.1041456701         1.225913980    
T4         1.335635590         1.191035850        0.4424697638    
T4         1.170027670        0.7468729246         1.176132131    
T4         1.396760427         1.501301360        -1.344957246    
T4         1.974666386        0.8939089986        -1.806835003    
T4        0.5132043708         1.212486183        -1.573312955    
T4         1.357633527         1.386575982        -1.433315457    
    24
Energy=    -193.670659148429    
T4        -1.195203333        0.6191629521        -1.658541482    
T4        -1.877201489         1.076181542        -2.150724745    
T4        -1.421502864        0.7676085215       -0.7403997311    
T4        -1.311476396        0.6966696694        -1.604013657    
T4        -1.124550342        -1.799221293       -0.1257059923    
T4        -1.446387314        -1.165116982        0.5150471010    
T4        -1.119850740        -1.321155013       -0.9549601065    
T4        -1.165147752        -1.656850039       -0.1498363972    
T4        -1.558311191        0.7195774629         1.081479220    
T4        -1.969470702         1.177638471         1.814527520    
T4       -0.6186121670        0.7996355146         1.245150513    
T4        -1.490651757        0.7884631948         1.196270147    
T4         1.435876956        -1.861012649        0.7737869301    
T4         1.630632976        -2.721247103         1.145672150    
T4        0.5510565214        -1.947640559        0.4190754362    
T4         1.347540385        -1.982222456        0.7759853742    
T4         1.110534825        0.8178760251         1.294700952    
T4         1.361228187       -0.1035113980         1.228143498    
T4         1.336901654         1.190341755        0.4424925394    
T4         1.171604285        0.7476074257         1.177087836    
T4         1.395911692         1.499046446        -1.345128426    
T4         1.973491460        0.8935128509        -1.809846100    
T4        0.5121972797         1.211432597        -1.574385815    
T4         1.356722764         1.384712798        -1.433965607    
    24
Energy=    -193.669504124803    
T4        -1.197051218        0.6202758692        -1.658116371    
T4        -1.877838826         1.079592466        -2.149836146    
T4        -1.422924002        0.7684420106       -0.7398244126    
T4        -1.313114687        0.6980409888        -1.603509985    
T4        -1.122406257        -1.797889278       -0.1281958330    
T4        -1.445313688        -1.165624024        0.5138347583    
T4        -1.119083653        -1.318324519       -0.9565909334    
T4        -1.163316971        -1.655561622       -0.1520527386    
T4        -1.558868545        0.7190899028         1.082812078    
T4        -1.970201736         1.176311790         1.816286679    
T4       -0.6191937807        0.7996461931         1.246378157    
T4        -1.491234449        0.7879319978         1.197644107    
T4         1.436858542        -1.861191580        0.7756354050    
T4         1.632634267        -2.723602623         1.141901564    
T4        0.5527452360        -1.947005933        0.4189683340    
T4         1.348743027        -1.982575871        0.7768642040    
T4         1.110296004        0.8184622671         1.294584483    
T4         1.361709755       -0.1028016522         1.229042458    
T4         1.336178211         1.190117677        0.4418938443    
T4         1.171395645        0.7481057469         1.177039624    
T4         1.395481923         1.497051208        -1.346383258    
T4         1.971764149        0.8847272221        -1.803756161    
T4        0.5111774129         1.210290474        -1.574430740    
T4         1.356051354         1.381957517        -1.434125337    
    24
Energy=    -193.667367733729    
T4        -1.198541764        0.6230812471        -1.656023600    
T4        -1.876382496         1.086555723        -2.147913010    
T4        -1.425445872        0.7701068084       -0.7378025751    
T4        -1.314360019        0.7012326174        -1.601448009    
T4        -1.119594820        -1.798246799       -0.1299175376    
T4        -1.444233044        -1.169018207        0.5142200581    
T4        -1.116185779        -1.315459002       -0.9564380521    
T4        -1.160716031        -1.655895285       -0.1532647517    
T4        -1.560423437        0.7181314716         1.085000154    
T4        -1.970583272         1.174862664         1.819436924    
T4       -0.6204805584        0.7989780326         1.246873740    
T4        -1.492604816        0.7869479098         1.199738694    
T4         1.437533617        -1.860510187        0.7783098036    
T4         1.635700701        -2.724483975         1.139572783    
T4        0.5540267828        -1.946973676        0.4202992174    
T4         1.349801860        -1.982177625        0.7787261491    
T4         1.108213546        0.8202662333         1.292426705    
T4         1.360921481       -0.1007676215         1.228652274    
T4         1.334388065         1.190803954        0.4393272236    
T4         1.169516278        0.7497960864         1.175055782    
T4         1.397027044         1.493267663        -1.349709974    
T4         1.970190892        0.8747531268        -1.802650160    
T4        0.5112766113         1.209351401        -1.575695739    
T4         1.357012190         1.377745633        -1.436620687    
    24
Energy=    -193.665096066477    
T4        -1.198962072        0.6247954221        -1.653969600    
T4        -1.874410307         1.091723003        -2.145884384    
T4        -1.427056559        0.7701875335       -0.7357834101    
T4        -1.314626442        0.7031797303        -1.599401717    
T4        -1.118638435        -1.798510095       -0.1308332149    
T4        -1.444881789        -1.171763594        0.5149112676    
T4        -1.115661587        -1.313342644       -0.9559607943    
T4        -1.160020448        -1.656171694       -0.1537964155    
T4        -1.562253478        0.7172686090         1.087080698    
T4        -1.971618124         1.173557137         1.822235924    
T4       -0.6221223641        0.7987696761         1.247526653    
T4        -1.494308966        0.7861121655         1.201728454    
T4         1.438262536        -1.858484991        0.7789578257    
T4         1.638706082        -2.723099079         1.137422195    
T4        0.5550670683        -1.946174417        0.4204774637    
T4         1.350862053        -1.980391330        0.7789557784    
T4         1.106660707        0.8218167346         1.290803317    
T4         1.360239220       -0.9911684997E-01     1.229069128    
T4         1.333905292         1.191032639        0.4374151550    
T4         1.168211864        0.7511902152         1.173656615    
T4         1.399144325         1.489221946        -1.352185159    
T4         1.969115901        0.8666597946        -1.803605816    
T4        0.5119203360         1.208388087        -1.576233763    
T4         1.358532189         1.373576358        -1.438653374    
    24
Energy=    -193.663010553665    
T4        -1.198376493        0.6261176160        -1.651876213    
T4        -1.872517326         1.094963727        -2.143759636    
T4        -1.426898907        0.7708687289       -0.7336951518    
T4        -1.313928279        0.7046654637        -1.597304972    
T4        -1.118131599        -1.798847808       -0.1311673864    
T4        -1.445680210        -1.173749898        0.5155136401    
T4        -1.115860263        -1.312341592       -0.9555085679    
T4        -1.159771015        -1.656549068       -0.1539100297    
T4        -1.563594427        0.7163232374         1.088552499    
T4        -1.972897138         1.172262140         1.823959086    
T4       -0.6234305068        0.7989005668         1.248254180    
T4        -1.495637788        0.7852598122         1.203137157    
T4         1.438050540        -1.856973110        0.7793863154    
T4         1.639076383        -2.722125744         1.136221528    
T4        0.5551041798        -1.944716867        0.4203061050    
T4         1.350756487        -1.978955344        0.7790989286    
T4         1.105581090        0.8231781116         1.289283960    
T4         1.359367151       -0.9780620055E-01     1.229180948    
T4         1.334312053         1.191327183        0.4358320001    
T4         1.167349090        0.7524085309         1.172337902    
T4         1.400814491         1.486250325        -1.354378472    
T4         1.968176519        0.8625034183        -1.807447965    
T4        0.5123709490         1.207683870        -1.576415954    
T4         1.359712183         1.370743329        -1.440800310    
    24
Energy=    -193.660812793559    
T4        -1.197403682        0.6270436626        -1.650006371    
T4        -1.870963217         1.096945602        -2.141678580    
T4        -1.425745031        0.7716672234       -0.7317601658    
T4        -1.312857877        0.7057103408        -1.595399753    
T4        -1.118239410        -1.798644954       -0.1317038543    
T4        -1.446790984        -1.174580123        0.5154659763    
T4        -1.116542100        -1.311423193       -0.9556237017    
T4        -1.160080699        -1.656386863       -0.1543299889    
T4        -1.564769998        0.7154506158         1.089459296    
T4        -1.974124220         1.171112759         1.825008732    
T4       -0.6245987101        0.7991890143         1.248511709    
T4        -1.496819009        0.7845003928         1.203979126    
T4         1.437952442        -1.856175405        0.7799197301    
T4         1.639055174        -2.721690552         1.135831321    
T4        0.5552156597        -1.943756962        0.4202850776    
T4         1.350695060        -1.978183282        0.7794431334    
T4         1.105158899        0.8241857217         1.288094927    
T4         1.358841166       -0.9692704526E-01     1.229542235    
T4         1.335336196         1.191225232        0.4345539203    
T4         1.167098761        0.7532576600         1.171335929    
T4         1.401744562         1.484112420        -1.355969981    
T4         1.967368643        0.8603928367        -1.811244755    
T4        0.5124828978         1.206835516        -1.576340241    
T4         1.360315046         1.368774000        -1.442460697    
    24
Energy=    -193.657562492103    
T4        -1.196732510        0.6277442408        -1.648219493    
T4        -1.869937659         1.098360996        -2.139693336    
T4        -1.424794042        0.7724005398       -0.7299089074    
T4        -1.312105519        0.7065066149        -1.593579240    
T4        -1.118747819        -1.797971130       -0.1324595205    
T4        -1.447981344        -1.174579560        0.5150125457    
T4        -1.117523816        -1.310329181       -0.9561315854    
T4        -1.160736995        -1.655745435       -0.1550152462    
T4        -1.566284576        0.7145209738         1.089672981    
T4        -1.975795071         1.169891227         1.825316187    
T4       -0.6261334734        0.7991803176         1.248356755    
T4        -1.498356176        0.7836512776         1.204157624    
T4         1.438827592        -1.855216335        0.7795126268    
T4         1.640199761        -2.721016555         1.134577506    
T4        0.5560831277        -1.942696255        0.4198720930    
T4         1.351603718        -1.977247694        0.7789268879    
T4         1.105154441        0.8253763220         1.287995927    
T4         1.358596121       -0.9584597217E-01     1.230128499    
T4         1.336420438         1.191970222        0.4345577101    
T4         1.167202871        0.7543771961         1.171337810    
T4         1.402274117         1.481498330        -1.356771632    
T4         1.967019298        0.8571403740        -1.812262426    
T4        0.5126072074         1.204828732        -1.576267789    
T4         1.360680216         1.366155933        -1.443178105    
    24
Energy=    -193.654096489148    
T4        -1.197872815        0.6286095044        -1.648600479    
T4        -1.872474939         1.099284133        -2.138099415    
T4        -1.423890779        0.7723256809       -0.7296372699    
T4        -1.313163052        0.7072589400        -1.593623871    
T4        -1.118670161        -1.797058975       -0.1332302561    
T4        -1.449089954        -1.173918346        0.5138789758    
T4        -1.116024606        -1.309126373       -0.9567268364    
T4        -1.160629218        -1.654828196       -0.1558099648    
T4        -1.565367853        0.7141578754         1.092201040    
T4        -1.974035631         1.170097881         1.827959968    
T4       -0.6250268322        0.7996732597         1.249292488    
T4        -1.497307264        0.7834706979         1.206496660    
T4         1.435841015        -1.857768703        0.7854010831    
T4         1.634729937        -2.723808157         1.141281261    
T4        0.5540700799        -1.943917569        0.4230611438    
T4         1.348423878        -1.979660296        0.7845741557    
T4         1.104448970        0.8260722711         1.285484252    
T4         1.356992938       -0.9552524156E-01     1.229704248    
T4         1.338219437         1.191045637        0.4320338139    
T4         1.166703085        0.7548176647         1.169091786    
T4         1.405991913         1.481617628        -1.361134465    
T4         1.970897527        0.8657924906        -1.827903024    
T4        0.5163162230         1.202546275        -1.577532680    
T4         1.364417425         1.367060080        -1.448588055    
    24
Energy=    -193.646968727212    
T4        -1.200020955        0.6306342560        -1.646735574    
T4        -1.873235481         1.103785449        -2.135757036    
T4        -1.426088664        0.7734028903       -0.7276369131    
T4        -1.315139931        0.7094794249        -1.591680503    
T4        -1.118108822        -1.796015188       -0.1350257104    
T4        -1.449773552        -1.174126802        0.5126510471    
T4        -1.116910372        -1.307482274       -0.9581696807    
T4        -1.160412493        -1.653867865       -0.1574876306    
T4        -1.567356648        0.7125184673         1.094096034    
T4        -1.976941296         1.167350653         1.830030772    
T4       -0.6272001009        0.7988399028         1.251849378    
T4        -1.499437043        0.7817926598         1.208498891    
T4         1.439965789        -1.851410712        0.7764049173    
T4         1.642506477        -2.718045520         1.128758746    
T4        0.5568916108        -1.938643616        0.4175146052    
T4         1.352849292        -1.973517288        0.7755681685    
T4         1.101183846        0.8290502258         1.290563289    
T4         1.354569595       -0.9219526596E-01     1.232820359    
T4         1.335727876         1.196332459        0.4383164355    
T4         1.163644745        0.7581362452         1.174073618    
T4         1.408560189         1.471356227        -1.360021896    
T4         1.974211842        0.8453900509        -1.812168325    
T4        0.5192881746         1.191802965        -1.577454870    
T4         1.367132878         1.355438814        -1.445736138    
    24
Energy=    -193.635495820226    
T4        -1.199258914        0.6331616534        -1.645800652    
T4        -1.875113654         1.104522436        -2.132905592    
T4        -1.423869946        0.7742024818       -0.7260782976    
T4        -1.314529397        0.7115564481        -1.590420403    
T4        -1.118265931        -1.796784920       -0.1354160332    
T4        -1.450825490        -1.173865376        0.5108093313    
T4        -1.114279967        -1.309023388       -0.9590085535    
T4        -1.160327316        -1.654604342       -0.1581211691    
T4        -1.564898192        0.7125226112         1.095180283    
T4        -1.969419132         1.170041453         1.832249586    
T4       -0.6237211086        0.7951360379         1.248778977    
T4        -1.496199731        0.7816660582         1.209196532    
T4         1.431385901        -1.857172467        0.7905514963    
T4         1.628925924        -2.723660110         1.146091852    
T4        0.5501162501        -1.942250684        0.4267420148    
T4         1.343860260        -1.978984378        0.7894929484    
T4         1.106935110        0.8254205915         1.281947923    
T4         1.361487055       -0.9568517280E-01     1.227181892    
T4         1.344624773         1.191158126        0.4299082994    
T4         1.169947975        0.7543267576         1.165865859    
T4         1.407551355         1.478638813        -1.366260717    
T4         1.977365074        0.8692976282        -1.835566040    
T4        0.5201414615         1.192089350        -1.582188775    
T4         1.366895213         1.363954001        -1.453978857    
    24
Energy=    -193.608888887814    
T4        -1.201004925        0.6359858074        -1.643075420    
T4        -1.873548868         1.111554015        -2.130672964    
T4        -1.427237431        0.7757884438       -0.7235614639    
T4        -1.316059154        0.7147606998        -1.587784908    
T4        -1.115344979        -1.797224602       -0.1367269508    
T4        -1.450019115        -1.176404379        0.5104262869    
T4        -1.115274208        -1.308972687       -0.9600384975    
T4        -1.158178247        -1.655249987       -0.1592773397    
T4        -1.565044997        0.7107738192         1.098959054    
T4        -1.970328686         1.166603837         1.836655446    
T4       -0.6240216758        0.7934836272         1.253445419    
T4        -1.496463860        0.7797134143         1.213169211    
T4         1.433906488        -1.846067786        0.7744040520    
T4         1.639126799        -2.712857077         1.124822074    
T4        0.5505437558        -1.934841429        0.4166033200    
T4         1.347096076        -1.968391371        0.7734589760    
T4         1.102045426        0.8259381121         1.285925999    
T4         1.360725083       -0.9399276978E-01     1.230754921    
T4         1.339988068         1.193601570        0.4347863384    
T4         1.165619072        0.7552412187         1.169907290    
T4         1.408617787         1.467504422        -1.360895872    
T4         1.978528315        0.8378271177        -1.802416339    
T4        0.5213416478         1.182196677        -1.579006817    
T4         1.367991160         1.350375296        -1.445336651    
    24
Energy=    -193.520649657243    
T4        -1.196956498        0.6390544628        -1.640299216    
T4        -1.865281483         1.120838728        -2.127595303    
T4        -1.423170308        0.7785386064       -0.7207322935    
T4        -1.311468257        0.7185843147        -1.584963334    
T4        -1.112850623        -1.796086984       -0.1363602797    
T4        -1.450544536        -1.178645558        0.5124545990    
T4        -1.119597361        -1.307139075       -0.9592310249    
T4        -1.156943182        -1.654455801       -0.1586415306    
T4        -1.568143642        0.7074896943         1.101378428    
T4        -1.972810362         1.160202685         1.841329530    
T4       -0.6269573640        0.7931461337         1.253244172    
T4        -1.499462666        0.7764074767         1.215541744    
T4         1.437883277        -1.831891764        0.7500277632    
T4         1.655447239        -2.698141083         1.094280402    
T4        0.5522209207        -1.928265377        0.3999618315    
T4         1.352358622        -1.955119113        0.7492835916    
T4         1.097276516        0.8246146630         1.290692471    
T4         1.362762344       -0.9350326322E-01     1.237696350    
T4         1.333955031         1.192403424        0.4392545417    
T4         1.161559610        0.7541658902         1.174914001    
T4         1.405764825         1.455182029        -1.349290166    
T4         1.970313846        0.7949140168        -1.751238414    
T4        0.5167008423         1.176400439        -1.568556897    
T4         1.364222995         1.334972351        -1.428813178    
    24
Energy=    -193.483434678463    
T4        -1.193142622        0.6396071173        -1.640513988    
T4        -1.862889453         1.120324806        -2.126910459    
T4        -1.418026402        0.7791801765       -0.7206343839    
T4        -1.307666134        0.7190118168        -1.585022917    
T4        -1.114561103        -1.795660697       -0.1353466776    
T4        -1.452727088        -1.177853809        0.5128741616    
T4        -1.120553313        -1.307123409       -0.9584671129    
T4        -1.158617504        -1.654035295       -0.1577359360    
T4        -1.564108835        0.7074075131         1.100645586    
T4        -1.966225746         1.160971148         1.841465307    
T4       -0.6224066770        0.7929703122         1.249332817    
T4        -1.495035414        0.7764222012         1.214513208    
T4         1.434305841        -1.836311740        0.7569576861    
T4         1.649906052        -2.702062541         1.103690926    
T4        0.5498476874        -1.932652726        0.4038514277    
T4         1.348683954        -1.959471097        0.7561418629    
T4         1.097637962        0.8216032320         1.284863483    
T4         1.364060700       -0.9640983207E-01     1.234835706    
T4         1.334886786         1.187132350        0.4326115836    
T4         1.162113998        0.7508786212         1.169360798    
T4         1.402588874         1.461519837        -1.349969764    
T4         1.967700699        0.8079860141        -1.762006179    
T4        0.5135254102         1.181436624        -1.567573511    
T4         1.361119156         1.342005593        -1.430571301    
    24
Energy=    -193.473323398407    
T4        -1.202185058        0.6402540632        -1.636029623    
T4        -1.859975964         1.133141031        -2.126545068    
T4        -1.432837126        0.7803269634       -0.7176554912    
T4        -1.315916478        0.7212805629        -1.581258549    
T4        -1.108278859        -1.794195460       -0.1395802876    
T4        -1.448028436        -1.182585218        0.5136692648    
T4        -1.126563410        -1.302798593       -0.9608151107    
T4        -1.154111547        -1.652997242       -0.1610844289    
T4        -1.579766512        0.7031921333         1.105323447    
T4        -1.994351549         1.147975712         1.844592448    
T4       -0.6406269831        0.7956019441         1.265664370    
T4        -1.512617209        0.7719593683         1.220484371    
T4         1.461048563        -1.800300961        0.6947559889    
T4         1.700634347        -2.667368345         1.021902201    
T4        0.5686928348        -1.906330249        0.3650729827    
T4         1.377486134        -1.924869075        0.6944312486    
T4         1.082243336        0.8351167365         1.316790289    
T4         1.351871424       -0.8126819129E-01     1.255380206    
T4         1.314427012         1.211011487        0.4676579571    
T4         1.146481296        0.7659274728         1.200229874    
T4         1.411325895         1.416233129        -1.329946772    
T4         1.958650859        0.6969001363        -1.644950372    
T4        0.5185296559         1.155142367        -1.555730584    
T4         1.367101403         1.290727060        -1.399174085    
    24
Energy=    -193.450300337230    
T4        -1.212475279        0.6404815556        -1.631474148    
T4        -1.857532044         1.145781407        -2.126252552    
T4        -1.449261594        0.7812143288       -0.7147635241    
T4        -1.325361832        0.7231815259        -1.577461733    
T4        -1.102173434        -1.792860723       -0.1443284178    
T4        -1.443311478        -1.187674309        0.5141593039    
T4        -1.133056016        -1.298579643       -0.9634525352    
T4        -1.149796563        -1.652115619       -0.1648918145    
T4        -1.596745415        0.6988760135         1.110200539    
T4        -2.024255228         1.134510440         1.847553810    
T4       -0.6604910750        0.7980530198         1.282895567    
T4        -1.531619977        0.7673383292         1.226697701    
T4         1.489761759        -1.763698174        0.6305433974    
T4         1.752951445        -2.631795433        0.9361087380    
T4        0.5899329967        -1.879329916        0.3253068669    
T4         1.408264276        -1.889627355        0.6305854890    
T4         1.066414344        0.8501404850         1.350640243    
T4         1.338932925       -0.6447981887E-01     1.276916684    
T4         1.293194755         1.237034996        0.5049954458    
T4         1.130330639        0.7825852166         1.232950001    
T4         1.422125015         1.368711003        -1.309828824    
T4         1.938293250        0.5909785011        -1.521806059    
T4        0.5247107259         1.132427178        -1.544454882    
T4         1.373320921         1.238904680        -1.366999434    
    24
Energy=    -193.435187883634    
T4        -1.218166862        0.6404819752        -1.629017332    
T4        -1.856249232         1.152365003        -2.126067123    
T4        -1.458281437        0.7816446696       -0.7132390156    
T4        -1.330586666        0.7240797065        -1.575415029    
T4        -1.099165851        -1.792173416       -0.1469888430    
T4        -1.440984074        -1.190456179        0.5143193376    
T4        -1.136795639        -1.296383860       -0.9649182748    
T4        -1.147739774        -1.651679305       -0.1670382527    
T4        -1.605934091        0.6965448587         1.112800594    
T4        -2.040326712         1.127234939         1.849034895    
T4       -0.6713124871        0.7992757562         1.292134528    
T4        -1.541898746        0.7648291795         1.230004374    
T4         1.505597704        -1.744330856        0.5961754689    
T4         1.780949133        -2.612824318        0.8896589205    
T4        0.6020684720        -1.864989977        0.3040998902    
T4         1.425183366        -1.870954320        0.5963556936    
T4         1.057802524        0.8584780036         1.368986062    
T4         1.331773785       -0.5514032697E-01     1.288530270    
T4         1.281616309         1.251326807        0.5252982954    
T4         1.121525016        0.7918132211         1.250684537    
T4         1.428434875         1.342995099        -1.299158360    
T4         1.922648279        0.5382811719        -1.455428787    
T4        0.5284213170         1.122278974        -1.538932895    
T4         1.376487559         1.211727681        -1.349856893    
    24
Energy=    -193.432666437855    
T4        -1.219264516        0.6403334307        -1.628605345    
T4        -1.856198484         1.153276821        -2.126034775    
T4        -1.459932852        0.7815787300       -0.7129851410    
T4        -1.331608199        0.7240774757        -1.575071880    
T4        -1.099065044        -1.792096185       -0.1475577820    
T4        -1.440961066        -1.190919981        0.5142020857    
T4        -1.137755009        -1.296067662       -0.9652928432    
T4        -1.147784642        -1.651640742       -0.1675244886    
T4        -1.607460266        0.6961457404         1.113178096    
T4        -2.042912052         1.126072033         1.849233098    
T4       -0.6730960493        0.7993635114         1.293570562    
T4        -1.543593456        0.7643946128         1.230494428    
T4         1.508665412        -1.741600206        0.5908266133    
T4         1.785794731        -2.610208439        0.8822900203    
T4        0.6045389956        -1.862893250        0.3008692711    
T4         1.428402219        -1.868319512        0.5910194078    
T4         1.056269496        0.8601499101         1.372125625    
T4         1.330385160       -0.5331744046E-01     1.290456521    
T4         1.279534080         1.254025067        0.5287709386    
T4         1.119940169        0.7936358405         1.253711419    
T4         1.429726373         1.339080585        -1.297624253    
T4         1.920015507        0.5303154569        -1.445094157    
T4        0.5292642777         1.121106059        -1.538221348    
T4         1.377219285         1.207645522        -1.347301511    
    24
Energy=    -193.427858858081    
T4        -1.220610237        0.6425991231        -1.627479431    
T4        -1.854767371         1.158438064        -2.125462117    
T4        -1.462169001        0.7839868693       -0.7121157285    
T4        -1.332712437        0.7267320684        -1.574049625    