    38
 Energy=    -168.314891570654
AX            0.5558231123        0.7629437035       -0.1394131951
AX            1.6201532300        1.0314560960       -0.1400357609
AX            0.7737714215        1.7825965310       -0.4228578486
AX           -0.4383126081        0.3512327413        0.0506680518
AX           -1.6012185860        0.5089829834        0.0884030326
AX           -0.2327525013        1.4688869160        0.0525375737
AX           -0.6110137813       -0.7239400398        0.1515489077
AX           -1.7353724320       -0.5884871424        0.1142355048
AX           -0.6768787707       -1.8223828640        0.1345034477
AX            0.4167230175       -0.3237733299       -0.0026198357
AX            1.3717023270       -0.9198306458       -0.0124497334
AX            0.3212936670       -1.3776231890       -0.0417311327
AX           -0.0695142696       -0.2401432534        0.9459188988
AX            1.1353118830        0.2486755909        0.5988460687
AX           -1.1278150060       -0.0720187193        0.8717851114
AX            0.1501131781        0.8026253618        0.8656344073
AX           -0.1457851281       -1.3174717300        0.9740683789
AX            0.9670683857        1.4532892740        0.6264020809
AX           -0.9191866271        1.0073922400        0.8027591717
AX           -1.2546749900       -1.2161320560        0.8776542476
AX            0.8471021453       -0.7904481592        0.9174211441
AX            0.2694629912        0.1455631440       -0.9444476393
AX            1.3083956590        0.0491310884       -0.5119802275
AX           -1.0958563670       -0.1313566882       -0.6613821691
AX            0.0139195292        1.2037130670       -1.0091915980
AX           -0.2589569176       -0.8052266694       -0.8533817579
AX            1.0708282070        0.9426417778       -1.1067660640
AX           -0.9786257914        0.9914008837       -0.6528892868
AX           -1.2389930140       -1.2412683840       -0.6151792318
AX            0.8046793541       -0.8406222414       -0.9434925482
AX            0.6805685495        0.1940920327        1.6056694480
AX           -0.4900759009        0.4167884637        1.6846526780
AX           -0.7632774927       -0.6785256189        1.6995610850
AX            0.3007429697       -0.8011337537        1.8675934210
AX            0.3608061180        0.6600294291       -1.9222698890
AX           -0.6196938174        0.3625942100       -1.5098547520
AX            0.1341898741       -0.4524233025       -1.8312435790
AX            1.1553483830       -0.0412277465       -1.6086764100
    38
 Energy=    -168.314891570653
AX            0.5558231051        0.7629437079       -0.1394131866
AX            1.6201532290        1.0314560930       -0.1400357557
AX            0.7737714132        1.7825965290       -0.4228578443
AX           -0.4383126077        0.3512327379        0.0506680532
AX           -1.6012185720        0.5089829816        0.0884030381
AX           -0.2327525143        1.4688869130        0.0525375644
AX           -0.6110137810       -0.7239400398        0.1515489064
AX           -1.7353724350       -0.5884871345        0.1142355116
AX           -0.6768787782       -1.8223828690        0.1345034445
AX            0.4167230139       -0.3237733295       -0.0026198453
AX            1.3717023170       -0.9198306648       -0.0124497431
AX            0.3212936585       -1.3776231950       -0.0417311476
AX           -0.0695142657       -0.2401432469        0.9459188952
AX            1.1353118760        0.2486755950        0.5988460746
AX           -1.1278149980       -0.0720187233        0.8717851208
AX            0.1501131734        0.8026253775        0.8656344096
AX           -0.1457851252       -1.3174717230        0.9740683670
AX            0.9670683813        1.4532892760        0.6264020780
AX           -0.9191866300        1.0073922390        0.8027591728
AX           -1.2546749920       -1.2161320500        0.8776542502
AX            0.8471021471       -0.7904481557        0.9174211383
AX            0.2694629997        0.1455631438       -0.9444476423
AX            1.3083956550        0.0491310841       -0.5119802175
AX           -1.0958563720       -0.1313566862       -0.6613821636
AX            0.0139195302        1.2037130650       -1.0091916010
AX           -0.2589569266       -0.8052266506       -0.8533817585
AX            1.0708282140        0.9426417843       -1.1067660610
AX           -0.9786257915        0.9914008786       -0.6528892954
AX           -1.2389930200       -1.2412683760       -0.6151792266
AX            0.8046793474       -0.8406222342       -0.9434925509
AX            0.6805685406        0.1940920409        1.6056694540
AX           -0.4900758937        0.4167884614        1.6846526840
AX           -0.7632774777       -0.6785256239        1.6995610850
AX            0.3007429818       -0.8011337586        1.8675934150
AX            0.3608061241        0.6600294225       -1.9222698880
AX           -0.6196938168        0.3625941848       -1.5098547560
AX            0.1341898910       -0.4524233096       -1.8312435780
AX            1.1553484000       -0.0412277425       -1.6086764010
    38
 Energy=    -168.314891570651
AX            0.5558230998        0.7629437128       -0.1394131585
AX            1.6201532280        1.0314560960       -0.1400357535
AX            0.7737714007        1.7825965260       -0.4228578334
AX           -0.4383126079        0.3512327347        0.0506680577
AX           -1.6012185630        0.5089829957        0.0884030464
AX           -0.2327525305        1.4688869040        0.0525375550
AX           -0.6110137817       -0.7239400308        0.1515489042
AX           -1.7353724440       -0.5884871200        0.1142355242
AX           -0.6768787767       -1.8223828720        0.1345034384
AX            0.4167230139       -0.3237733078       -0.0026198750
AX            1.3717023110       -0.9198306866       -0.0124497590
AX            0.3212936492       -1.3776232080       -0.0417311740
AX           -0.0695142782       -0.2401432311        0.9459189047
AX            1.1353118640        0.2486756074        0.5988460837
AX           -1.1278149840       -0.0720187244        0.8717851297
AX            0.1501131722        0.8026253939        0.8656344080
AX           -0.1457851158       -1.3174717180        0.9740683507
AX            0.9670683851        1.4532892670        0.6264020838
AX           -0.9191866338        1.0073922430        0.8027591899
AX           -1.2546749910       -1.2161320510        0.8776542458
AX            0.8471021619       -0.7904481553        0.9174211326
AX            0.2694630135        0.1455631104       -0.9444476350
AX            1.3083956500        0.0491310750       -0.5119802037
AX           -1.0958563840       -0.1313566846       -0.6613821543
AX            0.0139195258        1.2037130670       -1.0091916060
AX           -0.2589569334       -0.8052266312       -0.8533817683
AX            1.0708282210        0.9426417870       -1.1067660590
AX           -0.9786257926        0.9914008672       -0.6528893178
AX           -1.2389930340       -1.2412683680       -0.6151792120
AX            0.8046793366       -0.8406222255       -0.9434925588
AX            0.6805685308        0.1940920571        1.6056694690
AX           -0.4900758902        0.4167884533        1.6846526900
AX           -0.7632774668       -0.6785256293        1.6995610780
AX            0.3007429927       -0.8011337583        1.8675934040
AX            0.3608061305        0.6600294139       -1.9222698930
AX           -0.6196938136        0.3625941479       -1.5098547610
AX            0.1341899154       -0.4524233198       -1.8312435780
AX            1.1553484180       -0.0412277403       -1.6086763960
    38
 Energy=    -168.314891570651
AX            0.5558231022        0.7629437339       -0.1394131575
AX            1.6201532670        1.0314560910       -0.1400357372
AX            0.7737714166        1.7825965300       -0.4228578170
AX           -0.4383126283        0.3512327620        0.0506680574
AX           -1.6012185820        0.5089830594        0.0884030928
AX           -0.2327525997        1.4688868970        0.0525375294
AX           -0.6110137929       -0.7239400302        0.1515489191
AX           -1.7353725090       -0.5884870826        0.1142355844
AX           -0.6768787372       -1.8223828820        0.1345033917
AX            0.4167230190       -0.3237733103       -0.0026198289
AX            1.3717023020       -0.9198307691       -0.0124498502
AX            0.3212936509       -1.3776231580       -0.0417312071
AX           -0.0695142305       -0.2401432207        0.9459188904
AX            1.1353118670        0.2486756674        0.5988461276
AX           -1.1278149810       -0.0720187193        0.8717851171
AX            0.1501131502        0.8026254372        0.8656344163
AX           -0.1457851103       -1.3174717060        0.9740683116
AX            0.9670684417        1.4532892590        0.6264021156
AX           -0.9191866420        1.0073922520        0.8027592421
AX           -1.2546750130       -1.2161321140        0.8776541938
AX            0.8471021896       -0.7904481290        0.9174210596
AX            0.2694630793        0.1455631476       -0.9444476501
AX            1.3083956630        0.0491310682       -0.5119801703
AX           -1.0958564760       -0.1313566830       -0.6613820923
AX            0.0139195391        1.2037130240       -1.0091915830
AX           -0.2589569909       -0.8052265687       -0.8533817678
AX            1.0708282410        0.9426417618       -1.1067660250
AX           -0.9786258232        0.9914008067       -0.6528893872
AX           -1.2389930830       -1.2412683470       -0.6151791530
AX            0.8046793019       -0.8406222216       -0.9434925982
AX            0.6805685039        0.1940921476        1.6056694990
AX           -0.4900758995        0.4167884327        1.6846527010
AX           -0.7632774742       -0.6785256810        1.6995610270
AX            0.3007430121       -0.8011337179        1.8675933210
AX            0.3608061369        0.6600293979       -1.9222698630
AX           -0.6196937712        0.3625939723       -1.5098547240
AX            0.1341899914       -0.4524233641       -1.8312435750
AX            1.1553484700       -0.0412277433       -1.6086764100
    38
 Energy=    -168.314891570650
AX            0.5558231098        0.7629437421       -0.1394131510
AX            1.6201532860        1.0314560930       -0.1400357358
AX            0.7737714274        1.7825965340       -0.4228578065
AX           -0.4383126399        0.3512327749        0.0506680574
AX           -1.6012186090        0.5089831066        0.0884031132
AX           -0.2327526251        1.4688868920        0.0525375238
AX           -0.6110137975       -0.7239400168        0.1515489236
AX           -1.7353725420       -0.5884870663        0.1142356125
AX           -0.6768787045       -1.8223828790        0.1345033702
AX            0.4167230244       -0.3237732893       -0.0026198184
AX            1.3717023090       -0.9198307927       -0.0124498890
AX            0.3212936562       -1.3776231360       -0.0417312185
AX           -0.0695142255       -0.2401432150        0.9459188959
AX            1.1353118680        0.2486756992        0.5988461451
AX           -1.1278149820       -0.0720187096        0.8717851027
AX            0.1501131456        0.8026254432        0.8656344137
AX           -0.1457851031       -1.3174717070        0.9740683025
AX            0.9670684832        1.4532892400        0.6264021430
AX           -0.9191866456        1.0073922640        0.8027592831
AX           -1.2546750170       -1.2161321580        0.8776541615
AX            0.8471022151       -0.7904481214        0.9174210339
AX            0.2694631101        0.1455631345       -0.9444476401
AX            1.3083956730        0.0491310630       -0.5119801621
AX           -1.0958565250       -0.1313566841       -0.6613820654
AX            0.0139195379        1.2037130110       -1.0091915720
AX           -0.2589570111       -0.8052265521       -0.8533817749
AX            1.0708282420        0.9426417409       -1.1067660110
AX           -0.9786258404        0.9914007764       -0.6528894282
AX           -1.2389931060       -1.2412683440       -0.6151791226
AX            0.8046792878       -0.8406222262       -0.9434926194
AX            0.6805684992        0.1940921915        1.6056695140
AX           -0.4900759113        0.4167884187        1.6846527020
AX           -0.7632774937       -0.6785257028        1.6995609940
AX            0.3007430115       -0.8011336892        1.8675932850
AX            0.3608061357        0.6600293951       -1.9222698560
AX           -0.6196937487        0.3625939001       -1.5098547040
AX            0.1341900239       -0.4524233815       -1.8312435770
AX            1.1553484820       -0.0412277490       -1.6086764250
    38
 Energy=    -168.314891570649
AX            0.5558231206        0.7629437420       -0.1394131596
AX            1.6201532970        1.0314560880       -0.1400357373
AX            0.7737714473        1.7825965390       -0.4228578099
AX           -0.4383126447        0.3512327813        0.0506680526
AX           -1.6012186380        0.5089831229        0.0884031167
AX           -0.2327526234        1.4688868970        0.0525375289
AX           -0.6110138008       -0.7239400128        0.1515489282
AX           -1.7353725530       -0.5884870717        0.1142356163
AX           -0.6768786849       -1.8223828740        0.1345033631
AX            0.4167230309       -0.3237732771       -0.0026198071
AX            1.3717023210       -0.9198307825       -0.0124498942
AX            0.3212936667       -1.3776231190       -0.0417311977
AX           -0.0695142275       -0.2401432185        0.9459189001
AX            1.1353118780        0.2486757083        0.5988461415
AX           -1.1278149900       -0.0720187037        0.8717850872
AX            0.1501131466        0.8026254292        0.8656344072
AX           -0.1457851071       -1.3174717170        0.9740683154
AX            0.9670685059        1.4532892310        0.6264021543
AX           -0.9191866458        1.0073922690        0.8027592937
AX           -1.2546750200       -1.2161321840        0.8776541458
AX            0.8471022244       -0.7904481212        0.9174210293
AX            0.2694631174        0.1455631329       -0.9444476298
AX            1.3083956810        0.0491310639       -0.5119801719
AX           -1.0958565450       -0.1313566864       -0.6613820588
AX            0.0139195342        1.2037130100       -1.0091915630
AX           -0.2589570108       -0.8052265559       -0.8533817725
AX            1.0708282370        0.9426417283       -1.1067660080
AX           -0.9786258504        0.9914007703       -0.6528894342
AX           -1.2389931070       -1.2412683500       -0.6151791190
AX            0.8046792858       -0.8406222354       -0.9434926234
AX            0.6805685078        0.1940922017        1.6056695070
AX           -0.4900759195        0.4167884132        1.6846526940
AX           -0.7632775161       -0.6785257098        1.6995609800
AX            0.3007430001       -0.8011336707        1.8675932780
AX            0.3608061296        0.6600294037       -1.9222698500
AX           -0.6196937410        0.3625938939       -1.5098546890
AX            0.1341900216       -0.4524233804       -1.8312435760
AX            1.1553484710       -0.0412277541       -1.6086764370
    38
 Energy=    -168.314891570645
AX            0.5558231361        0.7629437288       -0.1394131938
AX            1.6201533150        1.0314560720       -0.1400357410
AX            0.7737714850        1.7825965490       -0.4228578255
AX           -0.4383126466        0.3512327865        0.0506680402
AX           -1.6012186870        0.5089831313        0.0884031141
AX           -0.2327526079        1.4688869160        0.0525375421
AX           -0.6110138072       -0.7239400167        0.1515489270
AX           -1.7353725590       -0.5884870912        0.1142356072
AX           -0.6768786573       -1.8223828690        0.1345033569
AX            0.4167230443       -0.3237732494       -0.0026198050
AX            1.3717023430       -0.9198307420       -0.0124498792
AX            0.3212936901       -1.3776230990       -0.0417311405
AX           -0.0695142378       -0.2401432168        0.9459189184
AX            1.1353119040        0.2486757081        0.5988461219
AX           -1.1278150010       -0.0720186979        0.8717850616
AX            0.1501131446        0.8026253895        0.8656343979
AX           -0.1457851228       -1.3174717420        0.9740683501
AX            0.9670685372        1.4532892210        0.6264021621
AX           -0.9191866461        1.0073922730        0.8027592889
AX           -1.2546750270       -1.2161322190        0.8776541283
AX            0.8471022374       -0.7904481262        0.9174210417
AX            0.2694631243        0.1455631405       -0.9444475887
AX            1.3083956860        0.0491310681       -0.5119801978
AX           -1.0958565620       -0.1313566902       -0.6613820588
AX            0.0139195269        1.2037130150       -1.0091915450
AX           -0.2589570044       -0.8052265707       -0.8533817584
AX            1.0708282260        0.9426417106       -1.1067660070
AX           -0.9786258648        0.9914007780       -0.6528894200
AX           -1.2389930940       -1.2412683630       -0.6151791273
AX            0.8046792909       -0.8406222503       -0.9434926167
AX            0.6805685273        0.1940921993        1.6056694770
AX           -0.4900759252        0.4167884053        1.6846526680
AX           -0.7632775555       -0.6785257140        1.6995609660
AX            0.3007429740       -0.8011336479        1.8675932810
AX            0.3608061163        0.6600294264       -1.9222698420
AX           -0.6196937433        0.3625939227       -1.5098546670
AX            0.1341899988       -0.4524233716       -1.8312435770
AX            1.1553484410       -0.0412277646       -1.6086764600
    38
 Energy=    -168.314891570644
AX            0.5558231037        0.7629437088       -0.1394131390
AX            1.6201532500        1.0314561170       -0.1400358092
AX            0.7737713569        1.7825965030       -0.4228577003
AX           -0.4383126753        0.3512328039        0.0506680816
AX           -1.6012186100        0.5089832618        0.0884031548
AX           -0.2327526966        1.4688868250        0.0525375031
AX           -0.6110137545       -0.7239399520        0.1515489124
AX           -1.7353726150       -0.5884869443        0.1142357017
AX           -0.6768785906       -1.8223828720        0.1345033068
AX            0.4167230343       -0.3237732795       -0.0026197960
AX            1.3717023200       -0.9198308212       -0.0124499125
AX            0.3212936763       -1.3776231240       -0.0417313694
AX           -0.0695142091       -0.2401431953        0.9459188871
AX            1.1353118240        0.2486757382        0.5988461953
AX           -1.1278149650       -0.0720186488        0.8717850772
AX            0.1501131194        0.8026254611        0.8656344403
AX           -0.1457849982       -1.3174716780        0.9740682180
AX            0.9670686041        1.4532890850        0.6264022516
AX           -0.9191866477        1.0073923290        0.8027594196
AX           -1.2546749430       -1.2161321960        0.8776540301
AX            0.8471022669       -0.7904480796        0.9174210456
AX            0.2694631579        0.1455630762       -0.9444476480
AX            1.3083957180        0.0491310554       -0.5119801530
AX           -1.0958566120       -0.1313566674       -0.6613820040
AX            0.0139195181        1.2037129620       -1.0091915970
AX           -0.2589570750       -0.8052265432       -0.8533818695
AX            1.0708282000        0.9426417398       -1.1067660180
AX           -0.9786258662        0.9914007238       -0.6528895459
AX           -1.2389931940       -1.2412683080       -0.6151789774
AX            0.8046792494       -0.8406222459       -0.9434926420
AX            0.6805684695        0.1940922756        1.6056695880
AX           -0.4900759438        0.4167883808        1.6846527510
AX           -0.7632775319       -0.6785257520        1.6995609000
AX            0.3007429730       -0.8011336163        1.8675932760
AX            0.3608061321        0.6600293276       -1.9222698800
AX           -0.6196937098        0.3625937255       -1.5098546830
AX            0.1341901257       -0.4524234305       -1.8312436020
AX            1.1553485390       -0.0412277452       -1.6086763950
    38
 Energy=    -168.314891570639
AX            0.5558230781        0.7629436627       -0.1394131393
AX            1.6201532120        1.0314561440       -0.1400358539
AX            0.7737712766        1.7825964800       -0.4228576292
AX           -0.4383126861        0.3512328229        0.0506681058
AX           -1.6012185590        0.5089833293        0.0884031779
AX           -0.2327527486        1.4688867800        0.0525374808
AX           -0.6110137296       -0.7239399374        0.1515488828
AX           -1.7353726440       -0.5884868543        0.1142357535
AX           -0.6768785496       -1.8223828760        0.1345032762
AX            0.4167230407       -0.3237733016       -0.0026198085
AX            1.3717023030       -0.9198308611       -0.0124499177
AX            0.3212936746       -1.3776231430       -0.0417315046
AX           -0.0695141883       -0.2401431484        0.9459188953
AX            1.1353117820        0.2486757447        0.5988462366
AX           -1.1278149420       -0.0720186195        0.8717850886
AX            0.1501130903        0.8026254880        0.8656344805
AX           -0.1457849283       -1.3174716480        0.9740681372
AX            0.9670686429        1.4532890140        0.6264023003
AX           -0.9191866468        1.0073923580        0.8027594802
AX           -1.2546748930       -1.2161321740        0.8776539694
AX            0.8471022858       -0.7904480556        0.9174210548
AX            0.2694631886        0.1455630714       -0.9444476504
AX            1.3083957250        0.0491310548       -0.5119801255
AX           -1.0958566320       -0.1313566544       -0.6613819731
AX            0.0139195153        1.2037129230       -1.0091916290
AX           -0.2589571274       -0.8052265316       -0.8533819251
AX            1.0708281830        0.9426417581       -1.1067660260
AX           -0.9786258608        0.9914007029       -0.6528896046
AX           -1.2389932470       -1.2412682700       -0.6151788848
AX            0.8046792310       -0.8406222416       -0.9434926476
AX            0.6805684279        0.1940923118        1.6056696440
AX           -0.4900759470        0.4167883625        1.6846527890
AX           -0.7632775166       -0.6785257724        1.6995608660
AX            0.3007429663       -0.8011336020        1.8675932820
AX            0.3608061381        0.6600292670       -1.9222699050
AX           -0.6196937027        0.3625936207       -1.5098546940
AX            0.1341901929       -0.4524234704       -1.8312436270
AX            1.1553485960       -0.0412277338       -1.6086763560
    38
 Energy=    -168.314891570636
AX            0.5558230443        0.7629436520       -0.1394131178
AX            1.6201531860        1.0314561730       -0.1400358600
AX            0.7737712014        1.7825964640       -0.4228575878
AX           -0.4383126887        0.3512328264        0.0506681286
AX           -1.6012184820        0.5089833475        0.0884031931
AX           -0.2327527949        1.4688867460        0.0525374541
AX           -0.6110137202       -0.7239399347        0.1515488613
AX           -1.7353726500       -0.5884867968        0.1142357850
AX           -0.6768785690       -1.8223828850        0.1345032715
AX            0.4167230297       -0.3237733310       -0.0026198319
AX            1.3717022650       -0.9198309295       -0.0124499447
AX            0.3212936438       -1.3776231790       -0.0417316234
AX           -0.0695141670       -0.2401431148        0.9459188942
AX            1.1353117370        0.2486757502        0.5988462803
AX           -1.1278149160       -0.0720186180        0.8717851261
AX            0.1501130722        0.8026255398        0.8656345145
AX           -0.1457848876       -1.3174716120        0.9740680651
AX            0.9670686264        1.4532890080        0.6264023095
AX           -0.9191866478        1.0073923640        0.8027595106
AX           -1.2546748710       -1.2161321280        0.8776539706
AX            0.8471022873       -0.7904480418        0.9174210428
AX            0.2694632068        0.1455630730       -0.9444476698
AX            1.3083957100        0.0491310476       -0.5119800772
AX           -1.0958566240       -0.1313566456       -0.6613819602
AX            0.0139195281        1.2037128990       -1.0091916590
AX           -0.2589571660       -0.8052265069       -0.8533819559
AX            1.0708281900        0.9426417789       -1.1067660230
AX           -0.9786258446        0.9914006818       -0.6528896466
AX           -1.2389932820       -1.2412682370       -0.6151788403
AX            0.8046792211       -0.8406222193       -0.9434926608
AX            0.6805683837        0.1940923342        1.6056696980
AX           -0.4900759347        0.4167883611        1.6846528270
AX           -0.7632774613       -0.6785257765        1.6995608720
AX            0.3007430016       -0.8011336272        1.8675932700
AX            0.3608061584        0.6600292198       -1.9222699240
AX           -0.6196936986        0.3625935395       -1.5098547280
AX            0.1341902526       -0.4524235034       -1.8312436440
AX            1.1553486580       -0.0412277196       -1.6086763210
    38
 Energy=    -168.314891570633
AX            0.5558230276        0.7629436553       -0.1394131048
AX            1.6201531780        1.0314561920       -0.1400358516
AX            0.7737711715        1.7825964590       -0.4228575786
AX           -0.4383126853        0.3512328280        0.0506681385
AX           -1.6012184430        0.5089833434        0.0884031977
AX           -0.2327528097        1.4688867310        0.0525374421
AX           -0.6110137236       -0.7239399405        0.1515488461
AX           -1.7353726510       -0.5884867818        0.1142357959
AX           -0.6768785917       -1.8223828880        0.1345032754
AX            0.4167230261       -0.3237733474       -0.0026198479
AX            1.3717022460       -0.9198309721       -0.0124499698
AX            0.3212936220       -1.3776231960       -0.0417316742
AX           -0.0695141563       -0.2401430920        0.9459189002
AX            1.1353117180        0.2486757535        0.5988463055
AX           -1.1278149090       -0.0720186230        0.8717851501
AX            0.1501130683        0.8026255675        0.8656345315
AX           -0.1457848777       -1.3174715950        0.9740680344
AX            0.9670686024        1.4532890300        0.6264023030
AX           -0.9191866465        1.0073923590        0.8027595161
AX           -1.2546748700       -1.2161321060        0.8776539861
AX            0.8471022802       -0.7904480411        0.9174210225
AX            0.2694632167        0.1455630798       -0.9444476804
AX            1.3083957020        0.0491310413       -0.5119800486
AX           -1.0958566130       -0.1313566467       -0.6613819551
AX            0.0139195409        1.2037128890       -1.0091916700
AX           -0.2589571870       -0.8052264936       -0.8533819550
AX            1.0708282010        0.9426417893       -1.1067660190
AX           -0.9786258326        0.9914006695       -0.6528896601
AX           -1.2389932920       -1.2412682240       -0.6151788298
AX            0.8046792225       -0.8406222050       -0.9434926705
AX            0.6805683614        0.1940923417        1.6056697230
AX           -0.4900759293        0.4167883642        1.6846528420
AX           -0.7632774276       -0.6785257741        1.6995608810
AX            0.3007430278       -0.8011336454        1.8675932560
AX            0.3608061693        0.6600292011       -1.9222699290
AX           -0.6196936965        0.3625935054       -1.5098547440
AX            0.1341902743       -0.4524235173       -1.8312436500
AX            1.1553486860       -0.0412277119       -1.6086763070
    38
 Energy=    -168.314891570621
AX            0.5558230386        0.7629437019       -0.1394130663
AX            1.6201531800        1.0314562310       -0.1400358323
AX            0.7737712017        1.7825964460       -0.4228576045
AX           -0.4383126571        0.3512328354        0.0506681337
AX           -1.6012184550        0.5089833109        0.0884031837
AX           -0.2327527462        1.4688867090        0.0525374520
AX           -0.6110137449       -0.7239399734        0.1515488052
AX           -1.7353726750       -0.5884868198        0.1142357991
AX           -0.6768785988       -1.8223828840        0.1345032788
AX            0.4167230627       -0.3237733695       -0.0026198680
AX            1.3717022610       -0.9198310044       -0.0124500223
AX            0.3212936171       -1.3776231800       -0.0417316687
AX           -0.0695141590       -0.2401430306        0.9459189458
AX            1.1353117330        0.2486757506        0.5988463343
AX           -1.1278149440       -0.0720186287        0.8717851599
AX            0.1501130995        0.8026255761        0.8656345415
AX           -0.1457848982       -1.3174715920        0.9740680353
AX            0.9670685397        1.4532891100        0.6264022641
AX           -0.9191866274        1.0073923290        0.8027594665
AX           -1.2546748980       -1.2161321280        0.8776540003
AX            0.8471022253       -0.7904480720        0.9174209493
AX            0.2694632265        0.1455630824       -0.9444477276
AX            1.3083957310        0.0491310216       -0.5119800384