    38
Energy=    -168.716270715658    
AX        0.5030095771        0.7502471154       -0.1169274480    
AX         1.587687364        0.9779445290       -0.1270582072    
AX        0.7654500100         1.776977326       -0.1747515853    
AX       -0.4585328311        0.2986829802        0.3157890725E-02
AX        -1.420133430        0.7998675978        0.1374065236    
AX       -0.4618770995         1.385717151        0.6068890568E-01
AX       -0.5476703431       -0.7610012975        0.1437601287    
AX        -1.506307758       -0.2721555600       -0.7218909256E-01
AX       -0.6036258995        -1.840253792        0.1802756432    
AX        0.3699119961       -0.3672874942       -0.2013008530    
AX         1.360563124       -0.8446911969       -0.4514707996E-02
AX        0.4150195895        -1.381494623        0.1693540692    
AX        0.5808632616E-01   -0.2252638368        0.8344599006    
AX         1.094042904        0.1037489256        0.4934917428    
AX        -1.020844744       -0.1167415256E-01    0.8627610270    
AX        0.3361227682E-01    0.8382039707        0.8495105269    
AX       -0.2094614379        -1.266255260         1.056404019    
AX         1.046846874         1.180952052        0.7923606122    
AX       -0.9842160036         1.070272272         1.101173681    
AX        -1.340323617        -1.110645237        0.7476451909    
AX        0.9031748181       -0.8597023093         1.015610458    
AX        0.1169552358        0.3056264455       -0.9948407394    
AX         1.252027170        0.6689365321E-01   -0.6205124100    
AX       -0.7453265111       -0.3319278175       -0.8518707211    
AX        0.4351748445E-02     1.399577774       -0.9197128787    
AX       -0.1628472104        -1.255773377       -0.7445624437    
AX         1.006375429         1.021180424        -1.075273920    
AX       -0.9014927706        0.7843098252       -0.8446475863    
AX        -1.269458054        -1.265510589       -0.4934908623    
AX        0.8642076576       -0.8988045355        -1.003107037    
AX        0.7441492921        0.3034187838         1.508031484    
AX       -0.3794511200        0.3089100636         1.708357524    
AX       -0.8778154461       -0.6901579366         1.695493221    
AX        0.2204530103       -0.6178844805         1.856671263    
AX        0.2574410280        0.9070740748        -1.895217290    
AX       -0.6520200821        0.2771875630        -1.789745170    
AX        0.8933097445E-02   -0.5919562687        -1.619663121    
AX        0.9291058298        0.3564723814E-01    -1.667227739    
    38
Energy=    -168.716270715658    
AX        0.5030095778        0.7502471207       -0.1169274323    
AX         1.587687378        0.9779445028       -0.1270582065    
AX        0.7654500625         1.776977323       -0.1747516092    
AX       -0.4585328271        0.2986829875        0.3157897358E-02
AX        -1.420133457        0.7998675739        0.1374065230    
AX       -0.4618771412         1.385717147        0.6068891614E-01
AX       -0.5476703468       -0.7610013028        0.1437601312    
AX        -1.506307777       -0.2721555810       -0.7218910022E-01
AX       -0.6036259037        -1.840253787        0.1802756567    
AX        0.3699119858       -0.3672875009       -0.2013008452    
AX         1.360563122       -0.8446912057       -0.4514715462E-02
AX        0.4150195830        -1.381494625        0.1693540761    
AX        0.5808632527E-01   -0.2252638184        0.8344598907    
AX         1.094042907        0.1037489223        0.4934917386    
AX        -1.020844755       -0.1167417408E-01    0.8627610220    
AX        0.3361228800E-01    0.8382039820        0.8495105189    
AX       -0.2094614487        -1.266255245         1.056404022    
AX         1.046846886         1.180952054        0.7923606040    
AX       -0.9842160080         1.070272252         1.101173668    
AX        -1.340323608        -1.110645246        0.7476452028    
AX        0.9031748154       -0.8597023159         1.015610455    
AX        0.1169552354        0.3056264422       -0.9948407425    
AX         1.252027165        0.6689365326E-01   -0.6205124197    
AX       -0.7453265076       -0.3319278129       -0.8518707218    
AX        0.4351752593E-02     1.399577772       -0.9197128490    
AX       -0.1628471990        -1.255773373       -0.7445624425    
AX         1.006375439         1.021180426        -1.075273915    
AX       -0.9014927744        0.7843098290       -0.8446475806    
AX        -1.269458039        -1.265510599       -0.4934908764    
AX        0.8642076624       -0.8988045304        -1.003107052    
AX        0.7441492941        0.3034187997         1.508031479    
AX       -0.3794511235        0.3089100701         1.708357507    
AX       -0.8778154513       -0.6901579239         1.695493241    
AX        0.2204530112       -0.6178844667         1.856671260    
AX        0.2574410306        0.9070740868        -1.895217272    
AX       -0.6520200763        0.2771875748        -1.789745161    
AX        0.8933095098E-02   -0.5919562578        -1.619663118    
AX        0.9291058280        0.3564724566E-01    -1.667227749    
    38
Energy=    -168.716270715658    
AX        0.5030095740        0.7502471118       -0.1169274833    
AX         1.587687345        0.9779445464       -0.1270582035    
AX        0.7654499564         1.776977320       -0.1747515693    
AX       -0.4585328397        0.2986829691        0.3157892340E-02
AX        -1.420133411        0.7998676259        0.1374065230    
AX       -0.4618770601         1.385717154        0.6068889640E-01
AX       -0.5476703428       -0.7610012879        0.1437601396    
AX        -1.506307743       -0.2721555307       -0.7218909543E-01
AX       -0.6036258863        -1.840253801        0.1802756418    
AX        0.3699119908       -0.3672874965       -0.2013008729    
AX         1.360563134       -0.8446911714       -0.4514707661E-02
AX        0.4150195999        -1.381494619        0.1693540647    
AX        0.5808631897E-01   -0.2252638724        0.8344599169    
AX         1.094042867        0.1037489270        0.4934917477    
AX        -1.020844754       -0.1167412867E-01    0.8627610324    
AX        0.3361227959E-01    0.8382039510        0.8495105274    
AX       -0.2094614276        -1.266255287         1.056404027    
AX         1.046846868         1.180952067        0.7923606164    
AX       -0.9842159719         1.070272296         1.101173678    
AX        -1.340323642        -1.110645241        0.7476451774    
AX        0.9031748133       -0.8597023134         1.015610456    
AX        0.1169552373        0.3056264548       -0.9948407459    
AX         1.252027164        0.6689366384E-01   -0.6205124113    
AX       -0.7453265124       -0.3319278185       -0.8518707144    
AX        0.4351745834E-02     1.399577783       -0.9197129123    
AX       -0.1628472211        -1.255773361       -0.7445624328    
AX         1.006375429         1.021180447        -1.075273926    
AX       -0.9014927585        0.7843098306       -0.8446475840    
AX        -1.269458078        -1.265510587       -0.4934908140    
AX        0.8642076732       -0.8988045543        -1.003107026    
AX        0.7441492901        0.3034187629         1.508031497    
AX       -0.3794511123        0.3089100456         1.708357531    
AX       -0.8778154452       -0.6901579520         1.695493194    
AX        0.2204530173       -0.6178845058         1.856671278    
AX        0.2574410324        0.9070740703        -1.895217313    
AX       -0.6520200811        0.2771875448        -1.789745171    
AX        0.8933116081E-02   -0.5919562857        -1.619663121    
AX        0.9291058353        0.3564724080E-01    -1.667227732    
    38
Energy=    -168.716270715656    
AX        0.5030095577        0.7502470796       -0.1169274941    
AX         1.587687267        0.9779446624       -0.1270582069    
AX        0.7654496665         1.776977324       -0.1747514532    
AX       -0.4585328349        0.2986829539        0.3157875977E-02
AX        -1.420133293        0.7998677604        0.1374065479    
AX       -0.4618768736         1.385717166        0.6068883970E-01
AX       -0.5476703267       -0.7610012998        0.1437601568    
AX        -1.506307670       -0.2721554108       -0.7218906771E-01
AX       -0.6036258700        -1.840253812        0.1802755974    
AX        0.3699119985       -0.3672874890       -0.2013008793    
AX         1.360563158       -0.8446911369       -0.4514677509E-02
AX        0.4150196303        -1.381494609        0.1693540234    
AX        0.5808630434E-01   -0.2252639119        0.8344599436    
AX         1.094042828        0.1037489482        0.4934917625    
AX        -1.020844713       -0.1167403045E-01    0.8627610598    
AX        0.3361226601E-01    0.8382038679        0.8495105225    
AX       -0.2094613782        -1.266255367         1.056404001    
AX         1.046846806         1.180952067        0.7923606516    
AX       -0.9842159414         1.070272398         1.101173761    
AX        -1.340323683        -1.110645188        0.7476451154    
AX        0.9031748281       -0.8597023258         1.015610465    
AX        0.1169552150        0.3056264428       -0.9948407950    
AX         1.252027199        0.6689368519E-01   -0.6205123811    
AX       -0.7453265111       -0.3319278387       -0.8518707321    
AX        0.4351711182E-02     1.399577787       -0.9197130640    
AX       -0.1628472625        -1.255773367       -0.7445624338    
AX         1.006375402         1.021180453        -1.075273952    
AX       -0.9014927534        0.7843098073       -0.8446476124    
AX        -1.269458159        -1.265510543       -0.4934907165    
AX        0.8642076728       -0.8988045859        -1.003106985    
AX        0.7441492839        0.3034187090         1.508031528    
AX       -0.3794510928        0.3089100049         1.708357599    
AX       -0.8778154187       -0.6901579983         1.695493101    
AX        0.2204530193       -0.6178845923         1.856671305    
AX        0.2574410434        0.9070739950        -1.895217398    
AX       -0.6520200793        0.2771874890        -1.789745196    
AX        0.8933141892E-02   -0.5919563129        -1.619663126    
AX        0.9291058632        0.3564721984E-01    -1.667227685    
    38
Energy=    -168.716270715655    
AX        0.5030095540        0.7502470672       -0.1169275014    
AX         1.587687230        0.9779447234       -0.1270582101    
AX        0.7654495331         1.776977338       -0.1747513935    
AX       -0.4585328304        0.2986829454        0.3157865024E-02
AX        -1.420133233        0.7998678210        0.1374065593    
AX       -0.4618767777         1.385717172        0.6068881340E-01
AX       -0.5476703186       -0.7610012998        0.1437601561    
AX        -1.506307634       -0.2721553545       -0.7218905363E-01
AX       -0.6036258618        -1.840253816        0.1802755676    
AX        0.3699120108       -0.3672874791       -0.2013008789    
AX         1.360563164       -0.8446911232       -0.4514660208E-02
AX        0.4150196430        -1.381494608        0.1693540060    
AX        0.5808630051E-01   -0.2252639370        0.8344599536    
AX         1.094042824        0.1037489584        0.4934917730    
AX        -1.020844687       -0.1167398385E-01    0.8627610736    
AX        0.3361224904E-01    0.8382038329        0.8495105285    
AX       -0.2094613574        -1.266255403         1.056403986    
AX         1.046846774         1.180952060        0.7923606689    
AX       -0.9842159340         1.070272442         1.101173802    
AX        -1.340323698        -1.110645162        0.7476450854    
AX        0.9031748416       -0.8597023207         1.015610471    
AX        0.1169552075        0.3056264371       -0.9948408076    
AX         1.252027217        0.6689369172E-01   -0.6205123605    
AX       -0.7453265136       -0.3319278477       -0.8518707435    
AX        0.4351697037E-02     1.399577786       -0.9197131324    
AX       -0.1628472855        -1.255773382       -0.7445624394    
AX         1.006375381         1.021180443        -1.075273963    
AX       -0.9014927513        0.7843097949       -0.8446476256    
AX        -1.269458190        -1.265510515       -0.4934906852    
AX        0.8642076645       -0.8988045950        -1.003106953    
AX        0.7441492770        0.3034186770         1.508031541    
AX       -0.3794510824        0.3089099910         1.708357635    
AX       -0.8778154049       -0.6901580233         1.695493058    
AX        0.2204530190       -0.6178846201         1.856671309    
AX        0.2574410428        0.9070739585        -1.895217438    
AX       -0.6520200907        0.2771874651        -1.789745214    
AX        0.8933147854E-02   -0.5919563314        -1.619663129    
AX        0.9291058718        0.3564719832E-01    -1.667227663    
    38
Energy=    -168.716270715654    
AX        0.5030095431        0.7502470445       -0.1169275015    
AX         1.587687181        0.9779447925       -0.1270582156    
AX        0.7654493576         1.776977361       -0.1747513210    
AX       -0.4585328229        0.2986829498        0.3157838338E-02
AX        -1.420133167        0.7998678992        0.1374065874    
AX       -0.4618766757         1.385717174        0.6068877920E-01
AX       -0.5476703116       -0.7610013194        0.1437601428    
AX        -1.506307596       -0.2721552848       -0.7218903999E-01
AX       -0.6036258636        -1.840253812        0.1802755396    
AX        0.3699120234       -0.3672874687       -0.2013008678    
AX         1.360563170       -0.8446911261       -0.4514643268E-02
AX        0.4150196533        -1.381494613        0.1693539800    
AX        0.5808631482E-01   -0.2252639541        0.8344599655    
AX         1.094042841        0.1037489596        0.4934917912    
AX        -1.020844655       -0.1167393344E-01    0.8627610952    
AX        0.3361221629E-01    0.8382037995        0.8495105349    
AX       -0.2094613351        -1.266255434         1.056403962    
AX         1.046846736         1.180952046        0.7923606897    
AX       -0.9842159295         1.070272486         1.101173873    
AX        -1.340323705        -1.110645115        0.7476450578    
AX        0.9031748542       -0.8597023276         1.015610476    
AX        0.1169552029        0.3056264264       -0.9948408099    
AX         1.252027242        0.6689369913E-01   -0.6205123349    
AX       -0.7453265132       -0.3319278666       -0.8518707617    
AX        0.4351673626E-02     1.399577771       -0.9197132093    
AX       -0.1628473026        -1.255773412       -0.7445624532    
AX         1.006375354         1.021180415        -1.075273968    
AX       -0.9014927652        0.7843097661       -0.8446476419    
AX        -1.269458215        -1.265510477       -0.4934906589    
AX        0.8642076544       -0.8988045882        -1.003106930    
AX        0.7441492670        0.3034186533         1.508031552    
AX       -0.3794510665        0.3089099850         1.708357671    
AX       -0.8778153834       -0.6901580379         1.695493017    
AX        0.2204530171       -0.6178846459         1.856671302    
AX        0.2574410555        0.9070739040        -1.895217480    
AX       -0.6520200974        0.2771874484        -1.789745239    
AX        0.8933154002E-02   -0.5919563382        -1.619663134    
AX        0.9291058941        0.3564717362E-01    -1.667227644    
    38
Energy=    -168.716270715653    
AX        0.5030095353        0.7502470274       -0.1169274913    
AX         1.587687135        0.9779448431       -0.1270582171    
AX        0.7654492101         1.776977388       -0.1747512634    
AX       -0.4585328209        0.2986829300        0.3157819698E-02
AX        -1.420133117        0.7998679701        0.1374066123    
AX       -0.4618765954         1.385717176        0.6068874836E-01
AX       -0.5476702882       -0.7610013140        0.1437601347    
AX        -1.506307566       -0.2721552275       -0.7218902606E-01
AX       -0.6036258734        -1.840253815        0.1802755282    
AX        0.3699120249       -0.3672874568       -0.2013008559    
AX         1.360563168       -0.8446911401       -0.4514633274E-02
AX        0.4150196594        -1.381494621        0.1693539601    
AX        0.5808632124E-01   -0.2252639734        0.8344599561    
AX         1.094042865        0.1037489526        0.4934918049    
AX        -1.020844620       -0.1167389019E-01    0.8627611066    
AX        0.3361218050E-01    0.8382037723        0.8495105388    
AX       -0.2094613167        -1.266255455         1.056403942    
AX         1.046846698         1.180952022        0.7923607091    
AX       -0.9842159311         1.070272524         1.101173938    
AX        -1.340323706        -1.110645064        0.7476450511    
AX        0.9031748698       -0.8597023475         1.015610486    
AX        0.1169551997        0.3056264202       -0.9948408065    
AX         1.252027257        0.6689369935E-01   -0.6205123125    
AX       -0.7453265061       -0.3319278906       -0.8518707768    
AX        0.4351651903E-02     1.399577762       -0.9197132704    
AX       -0.1628473040        -1.255773456       -0.7445624750    
AX         1.006375327         1.021180384        -1.075273967    
AX       -0.9014927848        0.7843097354       -0.8446476689    
AX        -1.269458229        -1.265510448       -0.4934906499    
AX        0.8642076471       -0.8988045663        -1.003106925    
AX        0.7441492585        0.3034186394         1.508031565    
AX       -0.3794510511        0.3089099913         1.708357700    
AX       -0.8778153578       -0.6901580354         1.695492993    
AX        0.2204530117       -0.6178846676         1.856671293    
AX        0.2574410698        0.9070738629        -1.895217509    
AX       -0.6520200957        0.2771874402        -1.789745268    
AX        0.8933157847E-02   -0.5919563319        -1.619663132    
AX        0.9291059137        0.3564716085E-01    -1.667227638    
    38
Energy=    -168.716270715651    
AX        0.5030095309        0.7502470175       -0.1169274881    
AX         1.587687111        0.9779448620       -0.1270582179    
AX        0.7654491310         1.776977399       -0.1747512363    
AX       -0.4585328255        0.2986829278        0.3157802580E-02
AX        -1.420133096        0.7998680060        0.1374066307    
AX       -0.4618765661         1.385717173        0.6068873088E-01
AX       -0.5476702777       -0.7610013221        0.1437601245    
AX        -1.506307554       -0.2721552003       -0.7218901922E-01
AX       -0.6036258850        -1.840253814        0.1802755301    
AX        0.3699120224       -0.3672874564       -0.2013008476    
AX         1.360563165       -0.8446911569       -0.4514630893E-02
AX        0.4150196594        -1.381494628        0.1693539473    
AX        0.5808633670E-01   -0.2252639774        0.8344599533    
AX         1.094042886        0.1037489415        0.4934918153    
AX        -1.020844603       -0.1167387063E-01    0.8627611147    
AX        0.3361215382E-01    0.8382037663        0.8495105428    
AX       -0.2094613076        -1.266255458         1.056403930    
AX         1.046846682         1.180952008        0.7923607182    
AX       -0.9842159326         1.070272540         1.101173979    
AX        -1.340323703        -1.110645032        0.7476450549    
AX        0.9031748726       -0.8597023644         1.015610490    
AX        0.1169552020        0.3056264189       -0.9948407986    
AX         1.252027265        0.6689370009E-01   -0.6205123021    
AX       -0.7453265009       -0.3319279073       -0.8518707837    
AX        0.4351637396E-02     1.399577749       -0.9197132981    
AX       -0.1628472984        -1.255773481       -0.7445624882    
AX         1.006375313         1.021180363        -1.075273960    
AX       -0.9014928033        0.7843097117       -0.8446476822    
AX        -1.269458230        -1.265510432       -0.4934906476    
AX        0.8642076452       -0.8988045460        -1.003106934    
AX        0.7441492537        0.3034186407         1.508031569    
AX       -0.3794510411        0.3089100003         1.708357710    
AX       -0.8778153425       -0.6901580260         1.695492987    
AX        0.2204530081       -0.6178846765         1.856671282    
AX        0.2574410851        0.9070738409        -1.895217520    
AX       -0.6520200882        0.2771874428        -1.789745285    
AX        0.8933161691E-02   -0.5919563192        -1.619663133    
AX        0.9291059317        0.3564716091E-01    -1.667227640    
    38
Energy=    -168.716270715649    
AX        0.5030095555        0.7502470008       -0.1169274765    
AX         1.587687044        0.9779449419       -0.1270582209    
AX        0.7654488981         1.776977400       -0.1747511482    
AX       -0.4585328470        0.2986829198        0.3157772090E-02
AX        -1.420133033        0.7998680902        0.1374066996    
AX       -0.4618765027         1.385717186        0.6068869971E-01
AX       -0.5476702431       -0.7610013095        0.1437600869    
AX        -1.506307514       -0.2721551096       -0.7218903550E-01
AX       -0.6036259136        -1.840253799        0.1802755075    
AX        0.3699120444       -0.3672874807       -0.2013008091    
AX         1.360563188       -0.8446911913       -0.4514633812E-02
AX        0.4150196615        -1.381494640        0.1693539137    
AX        0.5808636123E-01   -0.2252639834        0.8344599511    
AX         1.094042941        0.1037489237        0.4934918367    
AX        -1.020844568       -0.1167382835E-01    0.8627611130    
AX        0.3361209575E-01    0.8382037506        0.8495105445    
AX       -0.2094613078        -1.266255457         1.056403902    
AX         1.046846631         1.180951997        0.7923607394    
AX       -0.9842159399         1.070272565         1.101174106    
AX        -1.340323701        -1.110644968        0.7476450448    
AX        0.9031748722       -0.8597024040         1.015610470    
AX        0.1169552052        0.3056263890       -0.9948408066    
AX         1.252027318        0.6689370732E-01   -0.6205122778    
AX       -0.7453264966       -0.3319279317       -0.8518708107    
AX        0.4351604784E-02     1.399577694       -0.9197133611    
AX       -0.1628472949        -1.255773500       -0.7445625099    
AX         1.006375291         1.021180324        -1.075273956    
AX       -0.9014928501        0.7843096754       -0.8446476825    
AX        -1.269458250        -1.265510385       -0.4934906564    
AX        0.8642076409       -0.8988045310        -1.003106934    
AX        0.7441492474        0.3034186642         1.508031563    
AX       -0.3794510175        0.3089100013         1.708357735    
AX       -0.8778153190       -0.6901580054         1.695492978    
AX        0.2204530258       -0.6178846927         1.856671260    
AX        0.2574411217        0.9070737465        -1.895217547    
AX       -0.6520200849        0.2771874404        -1.789745289    
AX        0.8933166975E-02   -0.5919563180        -1.619663154    
AX        0.9291059688        0.3564711901E-01    -1.667227614    
    38
Energy=    -168.716270715647    
AX        0.5030095563        0.7502468968       -0.1169274700    
AX         1.587686930        0.9779451542       -0.1270582312    
AX        0.7654484403         1.776977434       -0.1747509635    
AX       -0.4585328021        0.2986829146        0.3157729501E-02
AX        -1.420132909        0.7998682564        0.1374068453    
AX       -0.4618763560         1.385717234        0.6068866614E-01
AX       -0.5476702241       -0.7610012720        0.1437600443    
AX        -1.506307430       -0.2721549136       -0.7218910783E-01
AX       -0.6036259447        -1.840253752        0.1802754105    
AX        0.3699121514       -0.3672874493       -0.2013007569    
AX         1.360563282       -0.8446912203       -0.4514639035E-02
AX        0.4150196798        -1.381494665        0.1693538624    
AX        0.5808636343E-01   -0.2252640028        0.8344599569    
AX         1.094043034        0.1037489211        0.4934918618    
AX        -1.020844525       -0.1167376691E-01    0.8627611062    
AX        0.3361202045E-01    0.8382037027        0.8495105230    
AX       -0.2094613331        -1.266255463         1.056403845    
AX         1.046846523         1.180952012        0.7923607820    
AX       -0.9842159456         1.070272600         1.101174348    
AX        -1.340323693        -1.110644881        0.7476449647    
AX        0.9031748766       -0.8597024550         1.015610404    
AX        0.1169552171        0.3056262967       -0.9948407764    
AX         1.252027432        0.6689370962E-01   -0.6205122195    
AX       -0.7453265048       -0.3319279487       -0.8518708806    
AX        0.4351555959E-02     1.399577582       -0.9197134806    
AX       -0.1628473161        -1.255773498       -0.7445625409    
AX         1.006375260         1.021180275        -1.075273989    
AX       -0.9014929192        0.7843096554       -0.8446476523    
AX        -1.269458314        -1.265510279       -0.4934906795    
AX        0.8642076263       -0.8988045597        -1.003106874    
AX        0.7441492451        0.3034187051         1.508031545    
AX       -0.3794509849        0.3089099638         1.708357785    
AX       -0.8778153004       -0.6901579877         1.695492944    
AX        0.2204530826       -0.6178847256         1.856671237    
AX        0.2574411718        0.9070735249        -1.895217613    
AX       -0.6520201234        0.2771874129        -1.789745251    
AX        0.8933161387E-02   -0.5919563782        -1.619663207    
AX        0.9291060168        0.3564696728E-01    -1.667227530    
    38
Energy=    -168.716270715645    
AX        0.5030095699        0.7502468775       -0.1169274719    
AX         1.587686898        0.9779452177       -0.1270582350    
AX        0.7654483077         1.776977434       -0.1747509083    
AX       -0.4585327993        0.2986829177        0.3157718659E-02
AX        -1.420132872        0.7998682988        0.1374068888    
AX       -0.4618763173         1.385717251        0.6068865835E-01
AX       -0.5476702179       -0.7610012589        0.1437600269    
AX        -1.506307406       -0.2721548560       -0.7218913204E-01
AX       -0.6036259514        -1.840253736        0.1802753771    
AX        0.3699121842       -0.3672874535       -0.2013007369    
AX         1.360563312       -0.8446912250       -0.4514639930E-02
AX        0.4150196859        -1.381494670        0.1693538458    
AX        0.5808636598E-01   -0.2252640069        0.8344599638    
AX         1.094043060        0.1037489237        0.4934918705    
AX        -1.020844515       -0.1167375052E-01    0.8627611012    
AX        0.3361200029E-01    0.8382036922        0.8495105191    
AX       -0.2094613423        -1.266255464         1.056403829    
AX         1.046846494         1.180952023        0.7923607917    
AX       -0.9842159458         1.070272606         1.101174418    
AX        -1.340323695        -1.110644863        0.7476449379    
AX        0.9031748743       -0.8597024641         1.015610380    
AX        0.1169552197        0.3056262677       -0.9948407790    
AX         1.252027471        0.6689371389E-01   -0.6205122039    
AX       -0.7453265102       -0.3319279493       -0.8518708993    
AX        0.4351543862E-02     1.399577545       -0.9197135132    
AX       -0.1628473264        -1.255773487       -0.7445625447    
AX         1.006375254         1.021180264        -1.075273999    
AX       -0.9014929377        0.7843096532       -0.8446476350    
AX        -1.269458336        -1.265510248       -0.4934906844    
AX        0.8642076220       -0.8988045753        -1.003106852    
AX        0.7441492442        0.3034187178         1.508031538    
AX       -0.3794509755        0.3089099487         1.708357798    
AX       -0.8778152984       -0.6901579873         1.695492933    
AX        0.2204531023       -0.6178847347         1.856671231    
AX        0.2574411849        0.9070734566        -1.895217632    
AX       -0.6520201376        0.2771874035        -1.789745233    
AX        0.8933160162E-02   -0.5919564007        -1.619663226    
AX        0.9291060301        0.3564691857E-01    -1.667227500    
    38
Energy=    -168.716270715644    
AX        0.5030095804        0.7502468656       -0.1169274745    
AX         1.587686884        0.9779452682       -0.1270582393    
AX        0.7654482405         1.776977435       -0.1747508752    
AX       -0.4585327874        0.2986829228        0.3157721789E-02
AX        -1.420132846        0.7998683159        0.1374069110    
AX       -0.4618762854         1.385717266        0.6068866150E-01
AX       -0.5476702241       -0.7610012459        0.1437600202    
AX        -1.506307389       -0.2721548202       -0.7218915492E-01
AX       -0.6036259442        -1.840253724        0.1802753410    
AX        0.3699122183       -0.3672874497       -0.2013007284    
AX         1.360563340       -0.8446912120       -0.4514638585E-02
AX        0.4150196927        -1.381494668        0.1693538409    
AX        0.5808635465E-01   -0.2252640120        0.8344599746    
AX         1.094043065        0.1037489376        0.4934918713    
AX        -1.020844518       -0.1167374482E-01    0.8627610962    
AX        0.3361200452E-01    0.8382036792        0.8495105142    
AX       -0.2094613543        -1.266255470         1.056403824    
AX         1.046846476         1.180952039        0.7923607950    
AX       -0.9842159430         1.070272607         1.101174447    
AX        -1.340323700        -1.110644870        0.7476449038    
AX        0.9031748758       -0.8597024538         1.015610359    
AX        0.1169552178        0.3056262435       -0.9948407879    