    18
 Energy=    -458.125048428661
H             1.8596638960       -2.7480205310        1.6549087550
H             1.7503171110       -1.5065411340        0.7572247941
H             0.9228840628        1.0629222470        0.0753319706
H             0.9287303063        2.3628116870        0.9060226154
H             2.0988705720       -0.4491594346       -1.6076740590
H             0.6663935703       -0.7165577776       -1.0706937440
H            -2.2924339260        2.2312402850       -1.5645152570
H            -0.9421354524        1.9250638930       -0.8992452717
H            -1.4007497410       -0.2090197741       -1.4800694580
H            -1.2183958380       -1.0389462750       -0.2144308707
H            -0.6798524964        0.2462471919        1.5359973380
H            -0.2005444730       -1.1597230510        1.8409747650
O             1.5983738090       -1.8225760720        1.6614383000
O             0.3420280716        1.7120630400        0.5085124969
O             1.5705669270       -0.4454397384       -0.8044194689
O            -1.4961550660        1.7008419690       -1.6631419170
O            -1.0122425910       -1.0396324480       -1.1650366350
O            -0.9996415239       -0.6637729065        1.6040301750
    18
 Energy=    -458.124721217504
H             2.1415477340       -2.5581781210        1.7681598850
H             1.7786884860       -1.4558770990        0.7625695634
H             0.8789471610        1.0029339530        0.1013364870
H             0.8776522924        2.2757130970        0.9708262533
H             2.0057296920       -0.5093813053       -1.6467665210
H             0.5789193124       -0.7582126410       -1.0877429850
H            -2.0994820820        2.4468750080       -1.7136146790
H            -0.8974981257        1.9269480230       -0.9109427790
H            -1.4987263200       -0.1544058729       -1.4509432080
H            -1.3147128950       -1.0617210760       -0.2306928488
H            -0.7093908010        0.1347637440        1.5505780750
H            -0.1830503754       -1.2546244300        1.8338538750
O             1.7029502030       -1.7057327070        1.6963038520
O             0.2947622753        1.6385328760        0.5485763597
O             1.4901425050       -0.4969622297       -0.8350737723
O            -1.4280593260        1.7588594500       -1.7041691900
O            -1.1223551420       -1.0060068890       -1.1817111420
O            -1.0003659330       -0.7856751983        1.6074695870
    18
 Energy=    -458.123696409097
H             2.1118302490       -2.0465893090        2.0344172920
H             1.7631455710       -1.2605137280        0.7588401655
H             1.0664940770        0.8921571388       -0.0213735665
H             1.0944602030        1.7524022820        1.2526645910
H             2.0483546270       -0.7269759567       -1.7984891910
H             0.6039200904       -0.8591929300       -1.2386858190
H            -2.0144978120        2.5108037280       -1.4848655670
H            -0.9203598392        1.8911800430       -0.5979930341
H            -1.4767319580       -0.2228027036       -1.5526998530
H            -1.3029440840       -1.1835828690       -0.3993234984
H            -1.0284528750        0.1958582735        1.2792743130
H            -0.2755313939       -1.0339706560        1.7278073020
O             1.6428291880       -1.2674073190        1.7215356730
O             0.5941649200        1.6009236360        0.4447206914
O             1.5281575290       -0.6433951373       -0.9950491011
O            -1.6891357400        1.6721187500       -1.1454163160
O            -1.0939091820       -1.0877024120       -1.3439077080
O            -1.1560181410       -0.7478172519        1.4393892820
    18
 Energy=    -458.123693982036
H             2.1035546540       -2.0363097680        2.0387263670
H             1.7635252360       -1.2561353620        0.7571403414
H             1.0743712540        0.8934030083       -0.0280621999
H             1.0938118660        1.7404425560        1.2545189560
H             2.0504019590       -0.7327315792       -1.8018060230
H             0.6055575911       -0.8611141105       -1.2418653410
H            -2.0095649860        2.5065663520       -1.4756872760
H            -0.9160686481        1.8854165200       -0.5889534270
H            -1.4738624050       -0.2209751381       -1.5505881950
H            -1.3018357690       -1.1884337140       -0.4031899334
H            -1.0529119940        0.1939832897        1.2784625610
H            -0.2739137862       -1.0222534380        1.7221108740
O             1.6410373660       -1.2558796590        1.7195732280
O             0.6069390868        1.6068610910        0.4355902292
O             1.5301501370       -0.6463582900       -0.9987241216
O            -1.6924534190        1.6687750570       -1.1266540330
O            -1.0925365640       -1.0878720360       -1.3471611430
O            -1.1604261490       -0.7518912013        1.4374147920
    18
 Energy=    -458.123697748750
H             2.0952790580       -2.0260302260        2.0430354430
H             1.7639049020       -1.2517569970        0.7554405174
H             1.0822484310        0.8946488779       -0.0347508332
H             1.0931635280        1.7284828290        1.2563733220
H             2.0524492910       -0.7384872017       -1.8051228550
H             0.6071950918       -0.8630352910       -1.2450448630
H            -2.0046321600        2.5023289760       -1.4665089850
H            -0.9117774570        1.8796529970       -0.5799138199
H            -1.4709928520       -0.2191475726       -1.5484765380
H            -1.3007274540       -1.1932845590       -0.4070563685
H            -1.0773711140        0.1921083060        1.2776508100
H            -0.2722961785       -1.0105362200        1.7164144460
O             1.6392455430       -1.2443519980        1.7176107830
O             0.6197132535        1.6127985460        0.4264597669
O             1.5321427460       -0.6493214426       -1.0023991420
O            -1.6957710980        1.6654313630       -1.1078917500
O            -1.0911639460       -1.0880416600       -1.3504145790
O            -1.1648341560       -0.7559651506        1.4354403020
    18
 Energy=    -458.124716320746
H             1.9529439660       -1.6877819440        2.1596827250
H             1.7735077380       -1.1242099320        0.7289008574
H             1.2415163550        0.9475363656       -0.2320555189
H             1.0778749570        1.3048908380        1.2323549430
H             2.1210396860       -0.9036286826       -1.9018066720
H             0.6725479857       -0.9246912607       -1.3360306530
H            -1.9919707580        2.4730960810       -1.1182121130
H            -0.8148236397        1.7707059610       -0.4125111661
H            -1.4069745950       -0.2332647117       -1.5685704970
H            -1.2672522320       -1.2394432130       -0.4647638777
H            -1.5738314490        0.1266322151        1.3113947530
H            -0.3322498479       -0.7438825774        1.5921106930
O             1.5724732720       -0.9563563749        1.6664532830
O             0.8857770061        1.6383227060        0.3494091877
O             1.6042919210       -0.7292360264       -1.1098705060
O            -1.6938849820        1.6174332470       -0.7978533590
O            -1.0500066100       -1.1188872810       -1.4035505610
O            -1.2814967870       -0.7910440338        1.3898522110
    18
 Energy=    -458.125717420359
H             1.8779895260       -1.5509201780        2.1723260930
H             1.7124947290       -1.0351687340        0.7266206056
H             1.3244671500        1.0154191220       -0.3552980155
H             1.1216799950        1.2363506230        1.1266642970
H             2.1368296830       -1.0288657490       -1.9201101900
H             0.7034553260       -0.9113921855       -1.3396992940
H            -1.9338282490        2.4355554360       -0.8956359469
H            -0.7481233572        1.6756961790       -0.2852797185
H            -1.3686035440       -0.1999486866       -1.5421391890
H            -1.2384023840       -1.2563481680       -0.4830765868
H            -1.7032195390        0.0563590336        1.1925741350
H            -0.4282011002       -0.7048788229        1.5885301180
O             1.5241112710       -0.8211331869        1.6545690250
O             0.9015008922        1.6240813330        0.2698257393
O             1.6477461570       -0.7379971011       -1.1459365320
O            -1.6503737200        1.5542069770       -0.6365320715
O            -1.0234989870       -1.0970330910       -1.4170854440
O            -1.3674460390       -0.8293180441        1.3751966690
    18
 Energy=    -458.126729843621
H             1.8705560270       -1.4171740770        2.1852745550
H             1.6162896000       -0.9896486415        0.7235750376
H             1.4353584390        1.0866876110       -0.4834893316
H             1.2575329500        1.3091249930        0.9974623939
H             2.2007903640       -1.1705377960       -1.8354593820
H             0.7422953888       -0.9237784547       -1.3659126410
H            -2.0268518190        2.3809988480       -0.5934391303
H            -0.6966720462        1.6865157570       -0.2179799420
H            -1.3493483000       -0.1998804038       -1.5184923990
H            -1.2402457400       -1.3283490010       -0.5469699132
H            -1.7496078900        0.0450691049        1.0608238780
H            -0.5694389499       -0.7770042673        1.5957365790
O             1.3942451450       -0.7822430864        1.6447884820
O             1.0307554440        1.7026557700        0.1453226688
O             1.6806898170       -0.7656629128       -1.1361471130
O            -1.6374848100        1.5158491960       -0.4265050201
O            -0.9799570750       -1.0916797490       -1.4496546760
O            -1.4906686890       -0.8570264021        1.3067887190
    18
 Energy=    -458.126996946974
H             1.9139855690       -1.2764255720        2.2486471640
H             1.6111250420       -0.9613798391        0.7665860595
H             1.4346854440        1.0775764330       -0.5458183101
H             1.2492344980        1.2891424090        0.9337206870
H             2.1979097270       -1.3087508120       -1.7630961450
H             0.7423483114       -0.9674645365       -1.3543881920
H            -2.0644040760        2.4080359930       -0.3766100516
H            -0.7056582712        1.6997463960       -0.1993285560
H            -1.3465733950       -0.1568021254       -1.6223192110
H            -1.2439176430       -1.2613951140       -0.6137573984
H            -1.7223410020       -0.0025262659        1.0216563540
H            -0.5733792137       -0.8453521120        1.5769804230
O             1.3795584950       -0.7163828940        1.6778331260
O             1.0432080920        1.7001721270        0.0841095004
O             1.6798181490       -0.8361451789       -1.1061122220
O            -1.6557729320        1.5379885620       -0.3518071761
O            -0.9764810700       -1.0445045560       -1.5232907290
O            -1.4765257540       -0.9139297890        1.2336086810
