    18
 Energy=    -45.1333906478867
O             1.6251223640       -0.1911619307        2.1327419400
O             1.2896373810        1.5129761530       -0.0793153701
O             1.6017337510       -0.5958063601       -1.9564454240
O            -1.4337392440        1.3403689350       -0.1333423029
O            -1.1441223560       -1.1397607680       -1.4154655570
O            -0.9923293841       -0.9907484389        1.4879001770
H             1.7667075680       -0.1501641152        3.0802851660
H             0.7294514571       -0.5843277683        2.0129147470
H             1.5514309610        0.9114040681       -0.8107844436
H             1.5497525390        1.0379133840        0.7428132772
H             2.1596070060       -1.3176464550       -1.6566657540
H             0.6805645630       -0.9145640263       -1.8505545620
H            -1.8838277510        2.1896732470       -0.1581958706
H            -0.4538966662        1.5387858290       -0.1110490075
H            -1.3706304520       -0.2328398909       -1.0931601090
H            -1.8711267950       -1.4139663930       -1.9829271680
H            -1.3176217000       -0.1030383577        1.2415266310
H            -0.9907060454       -1.4705932970        0.6405843989
    18
 Energy=    -45.1322887599307
O             1.6331289420       -0.1972567214        2.1226314210
O             1.2854021270        1.5190500620       -0.0797902330
O             1.6039034460       -0.6005501782       -1.9429061030
O            -1.4380977900        1.3418832860       -0.1356693122
O            -1.1467371650       -1.1372097500       -1.4182390540
O            -0.9874856762       -0.9911099261        1.4829457430
H             1.7813416030       -0.1689357240        3.0696245170
H             0.7368741110       -0.5897269051        2.0037665740
H             1.5467284610        0.9177000965       -0.8115853391
H             1.5487273400        1.0438366600        0.7411281213
H             2.1535470030       -1.3157381260       -1.6129180950
H             0.6799801987       -0.9136581199       -1.8443696500
H            -1.8900045820        2.1901129050       -0.1646124740
H            -0.4586399025        1.5423215740       -0.1140469763
H            -1.3755979800       -0.2308839479       -1.0957356520
H            -1.8735092830       -1.4140958400       -1.9847365670
H            -1.3137595600       -0.1022847215        1.2421089550
H            -0.9897940966       -1.4669508090        0.6332648914
    18
 Energy=    -45.1311967110157
O             1.6387743730       -0.2058911233        2.1091723830
O             1.2820184180        1.5237406350       -0.0778838286
O             1.6048384010       -0.6034136267       -1.9339786780
O            -1.4414554680        1.3441157040       -0.1380693125
O            -1.1477319640       -1.1375037330       -1.4172761110
O            -0.9873955941       -0.9883459793        1.4817334450
H             1.7954059160       -0.1849110724        3.0550034950
H             0.7388666139       -0.5912802976        1.9951005760
H             1.5424543010        0.9232774374       -0.8106209044
H             1.5462870050        1.0464348640        0.7415576842
H             2.1544384250       -1.3079649960       -1.5816841110
H             0.6814759502       -0.9185486689       -1.8377451250
H            -1.8932971470        2.1921691750       -0.1712155190
H            -0.4622527218        1.5449317290       -0.1140334887
H            -1.3752783480       -0.2300742689       -1.0970966690
H            -1.8736147750       -1.4136138940       -1.9852356680
H            -1.3166409080       -0.1008578846        1.2402286060
H            -0.9908852819       -1.4657601850        0.6329039930
    18
 Energy=    -45.1290524710676
O             1.6391768900       -0.2065365603        2.0909930440
O             1.2811701790        1.5312136380       -0.0899575437
O             1.6105564220       -0.6159147310       -1.9208915550
O            -1.4418051840        1.3436423780       -0.1326235284
O            -1.1493927550       -1.1352808600       -1.4177953090
O            -0.9892904715       -0.9927834055        1.4806991650
H             1.8022701050       -0.1911655338        3.0359410800
H             0.7388879004       -0.5924922219        1.9810724750
H             1.5408828890        0.9300724103       -0.8223570532
H             1.5454602290        1.0531815620        0.7289921991
H             2.1509755250       -1.3068218260       -1.5293265660
H             0.6845069040       -0.9239659165       -1.8274363320
H            -1.8973386280        2.1904517010       -0.1435594443
H            -0.4631542645        1.5478704770       -0.1141378515
H            -1.3782295680       -0.2287400593       -1.0961283350
H            -1.8632342720       -1.4020464900       -2.0051839380
H            -1.3158852420       -0.1038503621        1.2406248430
H            -0.9995494624       -1.4703303850        0.6319354196
    18
 Energy=    -45.1268117645361
O             1.6377971950       -0.2033315565        2.0855916660
O             1.2785003020        1.5323263390       -0.0974425664
O             1.6166320830       -0.6261779060       -1.9175758640
O            -1.4440274760        1.3434852810       -0.1210747016
O            -1.1446491910       -1.1260215850       -1.4229874380
O            -0.9901385486       -1.0007287490        1.4772757590
H             1.8014329830       -0.1828874476        3.0303440530
H             0.7391455718       -0.5934832061        1.9776446140
H             1.5399907280        0.9310135795       -0.8289628993
H             1.5435096820        1.0554672160        0.7219254735
H             2.1497176740       -1.3149841400       -1.5126849660
H             0.6881106029       -0.9278265400       -1.8278091710
H            -1.9000935960        2.1898662940       -0.1370793819
H            -0.4654133280        1.5483083850       -0.1076075822
H            -1.3712337980       -0.2217316044       -1.0935360430
H            -1.8653128570       -1.3907062530       -2.0029331510
H            -1.3193105700       -0.1115920380        1.2413035750
H            -0.9986502612       -1.4744922540        0.6264693924
    18
 Energy=    -45.1254876857491
O             1.6380662590       -0.2057700667        2.0827196390
O             1.2779246120        1.5296424670       -0.0987949242
O             1.6220935980       -0.6280123134       -1.9183225130
O            -1.4460475680        1.3437727000       -0.1169756411
O            -1.1444611210       -1.1235778920       -1.4237123150
O            -0.9893530393       -1.0008350110        1.4784962890
H             1.7992918730       -0.1771672305        3.0276706930
H             0.7386024949       -0.5942022127        1.9766675060
H             1.5399867900        0.9285071423       -0.8302409919
H             1.5430214850        1.0526519150        0.7206133606
H             2.1500567150       -1.3172222880       -1.5068000340
H             0.6919432907       -0.9261529376       -1.8336350250
H            -1.9032182150        2.1894012080       -0.1348586316
H            -0.4677232105        1.5495640160       -0.1060704644
H            -1.3698509800       -0.2191810219       -1.0942174370
H            -1.8669615270       -1.3879039100       -2.0014436770
H            -1.3208807620       -0.1125740524        1.2421856900
H            -0.9964834974       -1.4744366970        0.6275792450
    18
 Energy=    -45.1229230314200
O             1.6395999850       -0.2065285491        2.0809092200
O             1.2779733510        1.5286031020       -0.1006923342
O             1.6229459680       -0.6305435555       -1.9122712160
O            -1.4463441310        1.3454432580       -0.1167482982
O            -1.1480029640       -1.1196116300       -1.4281735350
O            -0.9855532302       -1.0055738420        1.4749853020
H             1.7958317570       -0.1655856761        3.0263881770
H             0.7414266425       -0.5984835706        1.9738367090
H             1.5414717810        0.9229962005       -0.8283690709
H             1.5405941360        1.0550552050        0.7212637106
H             2.1498999630       -1.3199802130       -1.5005731870
H             0.6921594356       -0.9266766714       -1.8283742050
H            -1.9046952900        2.1904778740       -0.1294046578
H            -0.4681282982        1.5517520000       -0.1075870729
H            -1.3747000660       -0.2169697321       -1.0945952220
H            -1.8722633880       -1.3840976310       -2.0038259060
H            -1.3150053400       -0.1161643445        1.2407103490
H            -0.9912031150       -1.4776084090        0.6233820051
    18
 Energy=    -45.1174045925031
O             1.6466502040       -0.2140077201        2.0827558970
O             1.2751697550        1.5211060640       -0.1001224050
O             1.6229723010       -0.6337134710       -1.9153762560
O            -1.4491242120        1.3473674850       -0.1136083400
O            -1.1476536650       -1.1163940660       -1.4353695600
O            -0.9775097629       -1.0053163180        1.4714393220
H             1.7874195610       -0.1456071640        3.0298162080
H             0.7474969994       -0.6016062841        1.9738274100
H             1.5381078700        0.9172371940       -0.8294008541
H             1.5391479220        1.0471913010        0.7213655046
H             2.1457296500       -1.3172304260       -1.4881517860
H             0.6906931616       -0.9265871528       -1.8317974970
H            -1.9042655800        2.1943236290       -0.1180761453
H            -0.4704577437        1.5515839480       -0.1097345645
H            -1.3786622180       -0.2167192928       -1.0972327080
H            -1.8730370760       -1.3840365470       -2.0082568520
H            -1.3104219610       -0.1161917533        1.2407134060
H            -0.9862480092       -1.4748956110        0.6180699887
    18
 Energy=    -45.1088692614725
O             1.6575657700       -0.2166352572        2.0893619080
O             1.2718004890        1.5158158950       -0.0968859197
O             1.6181395170       -0.6403842551       -1.9107701060
O            -1.4508387710        1.3476062010       -0.1132356085
O            -1.1547769510       -1.1122909180       -1.4414068010
O            -0.9614022213       -1.0086005670        1.4595541460
H             1.7749856510       -0.1152081869        3.0363054170
H             0.7604210732       -0.6065967343        1.9731672680
H             1.5332894900        0.9149768678       -0.8286185710
H             1.5409030880        1.0405173450        0.7220526726
H             2.1342769650       -1.3200087720       -1.4690418000
H             0.6848039517       -0.9306965679       -1.8332385400
H            -1.9023687450        2.1965043500       -0.0992854633
H            -0.4711191740        1.5480245700       -0.1100671492
H            -1.3870305380       -0.2117787698       -1.1063606480
H            -1.8760789840       -1.3806800020       -2.0186094760
H            -1.2977366790       -0.1193153407        1.2336908190
H            -0.9788267366       -1.4747460430        0.6042486202
    18
 Energy=    -45.1056991546114
O             1.6608893610       -0.2162132802        2.0910991140
O             1.2710530230        1.5159717620       -0.0956347629
O             1.6158635410       -0.6428993035       -1.9065969500
O            -1.4509672900        1.3474981620       -0.1143786804
O            -1.1583593890       -1.1107081790       -1.4421055540
O            -0.9564132922       -1.0108090050        1.4546754320
H             1.7709745000       -0.1061335534        3.0377127360
H             0.7650946193       -0.6087831678        1.9714510840
H             1.5319205950        0.9154038380       -0.8277285678
H             1.5419119870        1.0405756920        0.7225354595
H             2.1310192240       -1.3225364620       -1.4637517540
H             0.6824677330       -0.9329544830       -1.8310551810
H            -1.9016446650        2.1966773620       -0.0935449080
H            -0.4708497991        1.5463471150       -0.1098852669
H            -1.3901098550       -0.2090234087       -1.1096110110
H            -1.8774786550       -1.3790205120       -2.0218854570
H            -1.2924207500       -0.1209696895        1.2305946770
H            -0.9769436919       -1.4759190710        0.5989703585
    18
 Energy=    -45.1022813072630
O             1.6629761240       -0.2152114830        2.0916613440
O             1.2704044530        1.5172304270       -0.0948152285
O             1.6139856690       -0.6452205592       -1.9019595910
O            -1.4510926490        1.3475487950       -0.1170083006
O            -1.1612280180       -1.1083546330       -1.4416321240
O            -0.9538336328       -1.0134332770        1.4508430430
H             1.7681724680       -0.0998139181        3.0379670430
H             0.7689694436       -0.6119362426        1.9687080740
H             1.5307717380        0.9160155072       -0.8267368931
H             1.5426775230        1.0422081620        0.7229002100
H             2.1299415360       -1.3249504030       -1.4607081500
H             0.6805196557       -0.9348311140       -1.8263650080
H            -1.9008199300        2.1969720690       -0.0896664583
H            -0.4704982329        1.5440439510       -0.1100024121
H            -1.3929660380       -0.2054524847       -1.1120500130
H            -1.8786648630       -1.3773869500       -2.0233559410
H            -1.2875937510       -0.1227213109        1.2278734030
H            -0.9757143011       -1.4782027220        0.5952077711
    18
 Energy=    -45.1009741579474
O             1.6632475590       -0.2158941089        2.0895738100
O             1.2708775880        1.5184375410       -0.0942743652
O             1.6141240910       -0.6459242523       -1.9000011260
O            -1.4515744420        1.3481725770       -0.1181158949
O            -1.1611518790       -1.1084346760       -1.4403050770
O            -0.9550219965       -1.0138598250        1.4501688810
H             1.7670978970       -0.0983914276        3.0359234100
H             0.7702884889       -0.6149296956        1.9657983310
H             1.5302555450        0.9171421096       -0.8266833737
H             1.5424251000        1.0424223820        0.7231995780
H             2.1324720880       -1.3259874340       -1.4614024880
H             0.6804605577       -0.9359273801       -1.8226245650
H            -1.9009650450        2.1978826470       -0.0895475120
H            -0.4712293111        1.5444892960       -0.1087230679
H            -1.3931229280       -0.2051931419       -1.1116703320
H            -1.8784660060       -1.3774677690       -2.0224622050
H            -1.2870191090       -0.1224091510        1.2280924260
H            -0.9766910016       -1.4776238770        0.5939143380
    18
 Energy=    -45.0975393093979
O             1.6645370930       -0.2076371533        2.0937662870
O             1.2723153730        1.5189615710       -0.0928083971
O             1.6110425560       -0.6491723406       -1.8964267700
O            -1.4510893640        1.3471466000       -0.1205214487
O            -1.1657728440       -1.1098436570       -1.4466309600
O            -0.9466489179       -1.0158436390        1.4454204000
H             1.7645521090       -0.0930628431        3.0406668110
H             0.7747884269       -0.6139933872        1.9656092880
H             1.5297782110        0.9166808413       -0.8256328540
H             1.5456153910        1.0439724270        0.7248414727
H             2.1238259890       -1.3302844380       -1.4544444870
H             0.6758246454       -0.9344063039       -1.8228199090
H            -1.8991335750        2.1971079690       -0.0831432472
H            -0.4713082713        1.5434017450       -0.1061580622
H            -1.3949319900       -0.2068321578       -1.1157141040
H            -1.8843779600       -1.3736854550       -2.0298827880
H            -1.2809531650       -0.1251843055        1.2243918390
H            -0.9720565106       -1.4808216610        0.5903476973
    18
 Energy=    -45.0909666341840
O             1.6667397240       -0.2000485456        2.0961366640
O             1.2766729440        1.5217035050       -0.0904350511
O             1.6070546310       -0.6533499230       -1.8909339040
O            -1.4497479420        1.3464437050       -0.1195764175
O            -1.1713918440       -1.1132142450       -1.4534827480
O            -0.9383046881       -1.0169690570        1.4386547070
H             1.7598038500       -0.0862072176        3.0442585070
H             0.7811885595       -0.6135976678        1.9626272560
H             1.5296707540        0.9168004968       -0.8227459023
H             1.5490205760        1.0469511360        0.7278100364
H             2.1157310670       -1.3366804250       -1.4470764620
H             0.6702984617       -0.9359571626       -1.8235683900
H            -1.9001121390        2.1948683290       -0.0762320607
H            -0.4707202075        1.5449046490       -0.1013018799
H            -1.3971032850       -0.2112442128       -1.1180547590
H            -1.8902091360       -1.3706023710       -2.0394724620
H            -1.2747216130       -0.1263713103        1.2208495660
H            -0.9678625165       -1.4809258700        0.5834040680
    18
 Energy=    -45.0769634907140
O             1.6713400270       -0.1916101832        2.1052994720
O             1.2813935120        1.5214799650       -0.0875911604
O             1.6011221070       -0.6571921836       -1.8889696280
O            -1.4466178900        1.3438586640       -0.1115055336
O            -1.1794153150       -1.1194498910       -1.4656210080
O            -0.9240057576       -1.0156257440        1.4299776750
H             1.7544452910       -0.0758535537        3.0541356670
H             0.7876296308       -0.6056726403        1.9643262790
H             1.5309303170        0.9147257504       -0.8183683536
H             1.5543006100        1.0475118750        0.7309605527
H             2.0970820710       -1.3427177890       -1.4335323120
H             0.6637681796       -0.9382379719       -1.8379070570
H            -1.9031684320        2.1891669350       -0.0655334740
H            -0.4678928845        1.5481266800       -0.0958836872
H            -1.3998650230       -0.2195907147       -1.1220588500
H            -1.8971429480       -1.3676399640       -2.0564531610
H            -1.2682652750       -0.1263401884        1.2158496130
H            -0.9596310263       -1.4784352310        0.5737357355
    18
 Energy=    -45.0739377855999
O             1.6720951020       -0.1935190043        2.1055706180
O             1.2807961110        1.5212377920       -0.0871830839
O             1.6010972460       -0.6571389058       -1.8881980320
O            -1.4461331460        1.3444857360       -0.1092226461
O            -1.1799651590       -1.1211659100       -1.4652777750
O            -0.9238442865       -1.0153360290        1.4289623630
H             1.7538080570       -0.0745894223        3.0537767210
H             0.7876536136       -0.6046180351        1.9633169550
H             1.5314277160        0.9157143661       -0.8178279535
H             1.5543576460        1.0468144680        0.7307259573
H             2.0969673960       -1.3432944400       -1.4334797310
H             0.6640669817       -0.9392416859       -1.8389901870
H            -1.9042548830        2.1889474880       -0.0652334412
H            -0.4674434537        1.5497167910       -0.0953577542
H            -1.3991439930       -0.2210124657       -1.1219775080
H            -1.8970818760       -1.3681938420       -2.0574359020
H            -1.2682956790       -0.1254008836        1.2168036310
H            -0.9601001959       -1.4769022040        0.5718885363
    18
 Energy=    -45.0624301459488
O             1.6752406700       -0.1966037073        2.1091055770
O             1.2777524440        1.5194154740       -0.0858099255
O             1.6007171730       -0.6583368981       -1.8899850510
O            -1.4444723560        1.3437306470       -0.1035818441
O            -1.1817423050       -1.1246842680       -1.4660124260
O            -0.9241043332       -1.0148579390        1.4264221600
H             1.7539197020       -0.0712802476        3.0569278970
H             0.7853177960       -0.5984982636        1.9653395130
H             1.5332056320        0.9148738870       -0.8178796957
H             1.5566168470        1.0469050150        0.7314510968
H             2.0936267750       -1.3435994510       -1.4306605770
H             0.6616760333       -0.9390435340       -1.8468036290
H            -1.9054979330        2.1864651580       -0.0632838759
H            -0.4666430564        1.5514147020       -0.0949048202
H            -1.3987014760       -0.2232448424       -1.1242685720
H            -1.8977418410       -1.3679649780       -2.0615484060
H            -1.2659223930       -0.1235093685        1.2175964220
H            -0.9572401832       -1.4746775700        0.5687569236
    18
 Energy=    -45.0461025398204
O             1.6765784010       -0.1717049913        2.1238680280
O             1.2838470980        1.5271986920       -0.0866079620
O             1.5862541270       -0.6682782185       -1.8765621750
O            -1.4364752430        1.3339260130       -0.1034974435
O            -1.1988644900       -1.1209185510       -1.4813587030
O            -0.9096381404       -1.0270353110        1.4135842770
H             1.7512070560       -0.0657620729        3.0742177840
H             0.7971102984       -0.5865883625        1.9658178200
H             1.5365283890        0.9094312227       -0.8076620625
H             1.5651676800        1.0703661380        0.7399748297
H             2.0699860990       -1.3567416370       -1.4143029570
H             0.6455324817       -0.9403938182       -1.8489089670
H            -1.9017331110        2.1733399740       -0.0508702179
H            -0.4602105533        1.5475890110       -0.0984129932
H            -1.4123763710       -0.2214569513       -1.1342596070
H            -1.9127987360       -1.3541031230       -2.0820548940
H            -1.2440978090       -0.1330903206        1.2006077450
H            -0.9400099811       -1.4892738780        0.5572882660
    18
 Energy=    -45.0022322504992
O             1.6798353600       -0.1344639616        2.1434149970
O             1.3011470580        1.5439407870       -0.0873781328
O             1.5650476120       -0.6822117228       -1.8551635690
O            -1.4262749350        1.3169752220       -0.1068210684
O            -1.2222497110       -1.1108289560       -1.5065508190
O            -0.8758418420       -1.0420582380        1.3942621070
H             1.7401640930       -0.0609373168        3.0977762100
H             0.8130766605       -0.5684327802        1.9635569220
H             1.5373906980        0.8967695246       -0.7892438448
H             1.5808021200        1.1148388780        0.7528888487
H             2.0319176160       -1.3794753120       -1.3886962600
H             0.6202104046       -0.9440186244       -1.8500662500
H            -1.8961029850        2.1519494390       -0.0314064055
H            -0.4522741704        1.5367195030       -0.1038507870
H            -1.4348256660       -0.2154752535       -1.1473729200
H            -1.9354158360       -1.3334889250       -2.1127388750
H            -1.2115119470       -0.1508741822        1.1741623880
H            -0.9190873341       -1.5124242660        0.5440882262
    18
 Energy=    -44.9836876952856
O             1.6797927860       -0.1192430467        2.1491003640
O             1.3089124470        1.5514286100       -0.0886055029
O             1.5576172890       -0.6843173452       -1.8441334410
O            -1.4232536800        1.3122134100       -0.1103322389
O            -1.2299158000       -1.1054121880       -1.5162696230
O            -0.8600814047       -1.0474422410        1.3877683360
H             1.7356869450       -0.0609600378        3.1048658660
H             0.8205351039       -0.5641775478        1.9606319620
H             1.5372834060        0.8936633447       -0.7824566873
H             1.5839641790        1.1285151230        0.7560045872
H             2.0187188790       -1.3884521940       -1.3806372600
H             0.6127021168       -0.9466480533       -1.8464408530
H            -1.8940104460        2.1461681160       -0.0250757977
H            -0.4484486801        1.5325394260       -0.1071908188
H            -1.4427958450       -0.2125452514       -1.1503119420
H            -1.9434061800       -1.3267965360       -2.1221394470
H            -1.2023538290       -0.1590774984        1.1650463840
H            -0.9149400903       -1.5229522770        0.5410368826
    18
 Energy=    -44.9798298440423
O             1.6801483870       -0.1178822416        2.1491730970
O             1.3103020190        1.5526904390       -0.0888140312
O             1.5567328600       -0.6838792182       -1.8419425980
O            -1.4229775150        1.3116871660       -0.1104166036
O            -1.2306326520       -1.1046576750       -1.5173476380
O            -0.8576809125       -1.0479293900        1.3870087370
H             1.7347193360       -0.0611102815        3.1052803240
H             0.8215638304       -0.5637083965        1.9594667170
H             1.5373241570        0.8937013225       -0.7813653012
H             1.5837776010        1.1299289020        0.7560684619
H             2.0172934930       -1.3898500980       -1.3799124330
H             0.6122167077       -0.9478328824       -1.8456197200
H            -1.8942309130        2.1456985310       -0.0244676891
H            -0.4475325518        1.5323831690       -0.1078309037
H            -1.4437629500       -0.2120766939       -1.1500563630
H            -1.9440648760       -1.3264330210       -2.1230997200
H            -1.2017584860       -0.1601748943        1.1641551450
H            -0.9154303381       -1.5240509230        0.5405812856
    18
 Energy=    -44.9701759625103
O             1.6807593530       -0.1177767900        2.1490475450
O             1.3108748080        1.5516662140       -0.0890136523
O             1.5564691010       -0.6830572901       -1.8418803450
O            -1.4235539970        1.3107661710       -0.1102881998
O            -1.2295714120       -1.1043048380       -1.5181028170
O            -0.8564616372       -1.0468183350        1.3877551300
H             1.7339146470       -0.0617007932        3.1057142610
H             0.8218316411       -0.5633444295        1.9584266400
H             1.5371393640        0.8937704759       -0.7806998305
H             1.5835905110        1.1298311630        0.7551666315
H             2.0162222890       -1.3895580960       -1.3791774410
H             0.6126643132       -0.9480641511       -1.8469115740
H            -1.8948154340        2.1460652100       -0.0242064384
H            -0.4463671125        1.5321117630       -0.1082638595
H            -1.4440459400       -0.2112876946       -1.1494640960
H            -1.9437638070       -1.3270515500       -2.1233084330
H            -1.2027509430       -0.1603107706        1.1643026990
H            -0.9161285480       -1.5244324440        0.5417645475
    18
 Energy=    -44.9670407356865
O             1.6772174350       -0.1033477406        2.1587146880
O             1.3069575120        1.5504640990       -0.0899507386
O             1.5531263490       -0.6836670165       -1.8407144300
O            -1.4202571030        1.3104271420       -0.1152354420
O            -1.2361024780       -1.1011697660       -1.5263684370
O            -0.8463429882       -1.0519562570        1.3848714180
H             1.7374557880       -0.0614638658        3.1149464770
H             0.8247758031       -0.5590773892        1.9667321730
H             1.5390500230        0.8913226249       -0.7811186358
H             1.5864160500        1.1311779140        0.7557724232
H             2.0042828850       -1.3913683380       -1.3725572900
H             0.6073853607       -0.9433702990       -1.8481408970
H            -1.8900491810        2.1440199600       -0.0195883613
H            -0.4441363292        1.5276098560       -0.1122365043
H            -1.4465415440       -0.2101010107       -1.1548364140
H            -1.9511349840       -1.3216890190       -2.1300428600
H            -1.1973248140       -0.1671538450        1.1579304940
H            -0.9087705898       -1.5341532350        0.5426831069
    18
 Energy=    -44.9548746694376
O             1.6736511250       -0.0917332430        2.1674926790
O             1.3032164590        1.5463289920       -0.0902186996
O             1.5507190760       -0.6849531507       -1.8425006660
O            -1.4186137200        1.3093530380       -0.1194806846
O            -1.2404641870       -1.1000619160       -1.5325932220
O            -0.8399386152       -1.0555393940        1.3828798690
H             1.7424841290       -0.0607020439        3.1231319660
H             0.8256080884       -0.5558934215        1.9765400700
H             1.5403653340        0.8900120897       -0.7818328724
H             1.5882604370        1.1311901510        0.7549510495
H             1.9950743590       -1.3911672920       -1.3673079930
H             0.6035272024       -0.9379468376       -1.8505185380
H            -1.8860083990        2.1435027550       -0.0160824112
H            -0.4416275407        1.5242720890       -0.1151666842
H            -1.4482950540       -0.2084811530       -1.1594483270
H            -1.9574893670       -1.3173708350       -2.1354828930
H            -1.1929561660       -0.1725387021        1.1531252370
H            -0.9015059652       -1.5417673120        0.5433728884
    18
 Energy=    -44.9468045382517
O             1.6716585600       -0.0862019616        2.1716528780